 +---------------------------------------------------------------+
 |                                                               |
 |        ####### #     # ####### ####### ####### ######         |
 |        #     # ##    # #          #    #       #     #        |
 |        #     # # #   # #          #    #       #     #        |
 |        #     # #  #  # #####      #    #####   ######         |
 |        #     # #   # # #          #    #       #              |
 |        #     # #    ## #          #    #       #              |
 |        ####### #     # #######    #    ####### #              |
 |                                                               |
 |        Linear-Scaling Ab Initio Total Energy Program          |
 |                                                               |
 |          Release for academic collaborators of ODG            |
 |                                             Version 4.5.14.11 |
 |                                                               |
 +---------------------------------------------------------------+
 |                                                               |
 |  Authors:                                                     |
 |  Jacek Dziedzic, Peter D. Haynes, Nicholas D. M. Hine,        |
 |  Arash. A. Mostofi, Mike C. Payne and Chris-Kriton Skylaris   |
 |                                                               |
 |  Contributors:                                                |
 |  J. Aarons, L. Andrinopoulos, P. W. Avraam, R. A. Bell,       |
 |  S. J. Clark, G. C. Constantinescu, F. Corsetti, N. Corsini,  |
 |  O. Dieguez, S. M. M. Dubois,  J. M. Escartin, A. Greco,      |
 |  H. H. Helal,  Q. O. Hill, L. P. Lee, J.-H. Li,               |
 |  E. B. Linscott, G. Moynihan, D. D. O`Regan, O. K. Okan,      |
 |  M. J. S. Phipps, C. J. Pickard, M. I. J. Probert,            |
 |  L. E. Ratcliff, M. Robinson, A. Ruiz Serrano, J. S. Spencer, |
 |  E. W. Tait, G. Teobaldi, D. Turban, V. Vitale,               |
 |  K. A. Wilkinson, C. Weber, J. C. Womack, N. Yeung,           |
 |  and T. J. Zuehlsdorff                                        |
 |                                                               |
 |                                   Copyright (c) 2004-2018     |
 |                                                               |
 |  Please cite:                                                 |
 |  "Introducing ONETEP: Linear-scaling density functional       |
 |   simulations on parallel computers".                         |
 |   C.-K. Skylaris, P. D. Haynes, A. A. Mostofi, M. C. Payne.   |
 |   J. Chem. Phys. 122 084119 (2005).                           |
 |                                                               |
 |          in all publications arising from your use of ONETEP. |
 |                                                               |
 +---------------------------------------------------------------+
 |                                                               |
 |   ONETEP is based on developments described in the following  |
 |   publications:                                               |
 |                                                               |
 |  "Nonorthogonal generalized Wannier function pseudopotential  |
 |   plane-wave method".                                         |
 |   C.-K. Skylaris, A. A. Mostofi, P. D. Haynes, O. Dieguez,    |
 |   M. C. Payne.                                                |
 |   Phys. Rev. B 66 035119 (2002).                              |
 |                                                               |
 |  "Preconditioned iterative minimization for linear-scaling    |
 |   electronic structure calculations".                         |
 |   A. A. Mostofi, P. D. Haynes, C.-K. Skylaris, M. C. Payne.   |
 |   J. Chem. Phys. 119(17), pp.8842-8848 (2003).                |
 |                                                               |
 |  "Total-energy calculations on a real space grid with         |
 |   localized functions and a plane-wave basis".                |
 |   A. A. Mostofi, C.-K. Skylaris, P. D. Haynes, M. C. Payne.   |
 |   Comput. Phys. Commun. 147, pp.788-802 (2002).               |
 |                                                               |
 |  "Accurate kinetic energy evaluation in electronic structure  |
 |   calculations with localized functions on real space grids"  |
 |   C.-K. Skylaris, A. A. Mostofi, P. D. Haynes, C. J. Pickard, |
 |   M. C. Payne.                                                |
 |   Comput. Phys. Commun. 140, pp.315-322 (2001).               |
 |                                                               |
 |  "Accurate ionic forces and geometry optimization in linear-  |
 |   scaling density-functional theory with local orbitals"      |
 |   N. D. M. Hine, M. Robinson, P. D. Haynes, C.-K. Skylaris,   |
 |   M. C. Payne, and A. A. Mostofi.                             |
 |   Phys. Rev. B 83 195102 (2011).                              |
 |                                                               |
 +---------------------------------------------------------------+

Job started: 05-08-2019 09:42 (+0100)
 
Reading parameters from file "ddec.dat" ...

WARNING: "cutoff_energy" not specified, but "psinc_spacing" specified.
         Using the latter to set the KE cutoff energy to  976.87496eV,
         thus *overriding* the default.

... done

If your calculation crashes here, before "Checking processes and threads..."
is displayed, then your stack size is insufficient.
If so, use "ulimit -s unlimited" at runtime.
You can disable this check with "check_stack_size F".

Checking processes and threads...
   Determining the default number of threads...
      No default threads set at compilation time: defaulting to 1.
      OpenMP library call suggests 1 threads.
      Hybrid MPI-OpenMP compilation detected.
      Number of MPI processes > 1.
      OMP_NUM_THREADS environment variable present and
      its value matches the one obtained from the OpenMP library call.
      Using this value as default.
      Default threads: 1
      Default applies to threads_max and threads_num_fftboxes.
      Settings in the input file override this default.
   ... done

   Running with 88 MPI processes.
   There are 44 MPI processes running on the same node as the root process.
   Each MPI process is using: 
               1 threads for simulation cell FFTs.
               1 threads for parallel FFT box operations.
               1 threads for loops over batched FFT box operations.
               1 threads in other parallel regions.
... done

Basic input checks...... done

Reading geometry and species blocks from file "ddec.dat" ...
  <species_atomic_set> block not found: NGWF initialisation set to SOLVE
IS: Dielectric excluded regions:
    - NONE.
    
  PSINC grid spacing along a1 set to   0.460000000000a0 from input file.
  PSINC grid spacing along a2 set to   0.460000000000a0 from input file.
  PSINC grid spacing along a3 set to   0.460000000000a0 from input file.
  Number of PPD points along a3 set to1.  This is 
  the default value, it may have been provided also in the input file.
... done
 Writing xyz coordinates to file "ddec.xyz" ... done


--------------------------------------------------------------------------------
---------------------------------- INPUT FILE ----------------------------------
--------------------------------------------------------------------------------

task          : properties                                                      
xc_functional : PBE                                                             
charge        : 0.0                                                             
minit_lnv             : 8                                                       
maxit_lnv             : 8                                                       
lnv_check_trial_steps : T                                                       
maxit_pen              : 0                                                      
maxit_palser_mano      : -1                                                     
initial_dens_realspace : T                                                      
maxit_hotelling        : 100                                                    
ngwf_threshold_orig  : 1.0e-6                                                   
maxit_ngwf_cg        : 50                                                       
delta_e_conv         : T                                                        
elec_energy_tol      : 2.60947e-09 hartree                                      
is_implicit_solvent T                                                           
is_include_apolar F                                                             
is_separate_restart_files T                                                     
is_solvation_beta 1.3                                                           
is_density_threshold 0.00035                                                    
is_bulk_permittivity 10.00                                                      
is_smeared_ion_rep T                                                            
is_smeared_ion_width 0.8                                                        
is_dielectric_model fix_initial                                                 
is_solvent_surf_tension 0.07415 N/m                                             
is_apolar_scaling_factor 0.281075                                               
output_detail        : VERBOSE                                                  
cube_format          : T                                                        
grd_format           : F                                                        
check_atoms          : T                                                        
do_properties        : T                                                        
write_forces         : F                                                        
write_xyz            : T                                                        
num_eigenvalues      : -1                                                       
polarisation_calculate : T                                                      
write_denskern       : T                                                        
write_tightbox_ngwfs : T                                                        
read_denskern        : T                                                        
read_tightbox_ngwfs  : T                                                        
psinc_spacing 0.460 0.460 0.460                                                 
ddec_calculate       : T                                                        
ddec_multipole       : T                                                        
ddec_moment          : 3                                                        
ddec_classical_hirshfeld : F                                                    
ddec_maxit           : 1000                                                     
ddec_IH_fraction     : 0.02                                                     
ddec_write_rad : T                                                              
ddec_rad_npts  : 100                                                            
ddec_rad_rcut  : 5 ang                                                          
ddec_reshape_dens    : T                                                        
ddec_use_coredens    : T                                                        
ddec_c3_refdens      : T                                                        
ddec_core_correction : T                                                        
ddec_format_dens     : T                                                        
%block ddec_rcomp                                                               
H ALL  "/nobackup/proj/dccadd/ddec_atomic_densities/H_c2.refconf"               
C ALL  "/nobackup/proj/dccadd/ddec_atomic_densities/C_c2.refconf"               
C CORE "/nobackup/proj/dccadd/ddec_atomic_densities/C_c2.coreconf"              
N ALL  "/nobackup/proj/dccadd/ddec_atomic_densities/N_c2.refconf"               
N CORE "/nobackup/proj/dccadd/ddec_atomic_densities/N_c2.coreconf"              
O ALL  "/nobackup/proj/dccadd/ddec_atomic_densities/O_c2.refconf"               
O CORE "/nobackup/proj/dccadd/ddec_atomic_densities/O_c2.coreconf"              
S ALL  "/nobackup/proj/dccadd/ddec_atomic_densities/S_c2.refconf"               
S CORE "/nobackup/proj/dccadd/ddec_atomic_densities/S_c2.coreconf"              
%endblock ddec_rcomp                                                            
%block lattice_cart                                                             
186.300000000   0.000000000   0.000000000                                       
0.000000000   186.300000000   0.000000000                                       
0.000000000   0.000000000   186.300000000                                       
%endblock lattice_cart                                                          
%block species                                                                  
H   H   1 1 10.0                                                                
C   C   6 4 10.0                                                                
N   N   7 4 10.0                                                                
O   O   8 4 10.0                                                                
S   S  16 4 10.0                                                                
%endblock species                                                               
%block species_pot                                                              
H   "/nobackup/proj/dccadd/recpots/opium/h-optgga1.recpot"                      
C   "/nobackup/proj/dccadd/recpots/opium/c-optgga1.recpot"                      
N   "/nobackup/proj/dccadd/recpots/opium/n-optgga1.recpot"                      
O   "/nobackup/proj/dccadd/recpots/opium/o-optgga1.recpot"                      
S   "/nobackup/proj/dccadd/recpots/opium2/s-optgga1.recpot"                     
%endblock species_pot                                                           
%block positions_abs                                                            
     Hash =   000005147423984784680587
%endblock positions_abs                                                         

--------------------------------------------------------------------------------
-------------------------------- END INPUT FILE --------------------------------
--------------------------------------------------------------------------------


 
 ESDF WARNING(1
 ): "issmearedionwidth" (esdf_physical) has no units. Assume "bohr".
<<<<<<<<<<<<<<<<<<<<<<<<< Pseudopotential information >>>>>>>>>>>>>>>>>>>>>>>>>>
File: /nobackup/proj/dccadd/recpots/opium/h-optgga1.recpot [ 2001 points up to Gmax=  52.9 (1/bohr)]
  Atomic number:  1;  ionic charge:  1.000000
    Local potential
File: /nobackup/proj/dccadd/recpots/opium/c-optgga1.recpot [ 2001 points up to Gmax=  52.9 (1/bohr)]
  Atomic number:  6;  ionic charge:  4.000000
    Shell 1: l = 1; rc = 1.31 bohr
File: /nobackup/proj/dccadd/recpots/opium/o-optgga1.recpot [ 2001 points up to Gmax=  52.9 (1/bohr)]
  Atomic number:  8;  ionic charge:  6.000000
    Shell 1: l = 1; rc = 1.54 bohr
File: /nobackup/proj/dccadd/recpots/opium/n-optgga1.recpot [ 2001 points up to Gmax=  52.9 (1/bohr)]
  Atomic number:  7;  ionic charge:  5.000000
    Shell 1: l = 1; rc = 1.54 bohr
File: /nobackup/proj/dccadd/recpots/opium2/s-optgga1.recpot [ 2001 points up to Gmax=  52.9 (1/bohr)]
  Atomic number: 16;  ionic charge:  6.000000
    Shell 1: l = 1; rc = 1.37 bohr
    Shell 2: l = 2; rc = 1.31 bohr
<<<<<<<<<<<<<<<<<<<<<<<<<<<<<<<<<<<<<<<<>>>>>>>>>>>>>>>>>>>>>>>>>>>>>>>>>>>>>>>>

-------------------------- Atom counting information ---------------------------
Symbol    Natoms    Nngwfs    Nprojs
  H       3060      3060         0
  C       1977      7908      5931
  O        560      2240      1680
  N        504      2016      1512
  S          6        24        48
.......   ......    ......    ......
Totals:   6107     15248      9171
--------------------------------------------------------------------------------

=============================== PSINC grid sizes ===============================
                      Simulation cell:  405 x 405 x 405
                              FFT-box:  135 x 135 x 135
                                  PPD:    5 x   5 x   1
Grid space d1=  0.460000000000a0 (KE cutoff=  35.89949Eh = 976.87496eV)
Grid space d2=  0.460000000000a0 (KE cutoff=  35.89949Eh = 976.87496eV)
Grid space d3=  0.460000000000a0 (KE cutoff=  35.89949Eh = 976.87496eV)
================================================================================

********************* Fourier parallelisation information **********************
       Coarse grid (whole simulation cell) dimensions:    405   405   405
          Real-space ('12') slabs/node (min max mean):      4     5     4
         Recip-space ('23') slabs/node (min max mean):      2     3     2
********************************************************************************

********************* Fourier parallelisation information **********************
       Double grid (whole simulation cell) dimensions:    810   810   810
          Real-space ('12') slabs/node (min max mean):      9    10     9
         Recip-space ('23') slabs/node (min max mean):      4     5     4
********************************************************************************
ONETEP fine grid is 810 x 810 x 810 gridpoints, 186.3000 x 186.3000 x 186.3000 bohr.
FD multigrid is     809 x 809 x 809 gridpoints, 186.0700 x 186.0700 x 186.0700 bohr.


Calculating local pseudopotential in open BC on a radial grid ...
Discrepancy between calculated realspace psloc and -Z/x on [5a0,322.681a0]:
max |rel. diff| # avg |rel. diff| #  avg rel. diff #  f # pseudopotential file
 0.002534160520    0.000098814145  -0.000000293232   68  '/nobackup/proj/dccadd/recpots/opium/h-optgga1.recpot'
 0.000347284524    0.000005030034   0.000000340181   68  '/nobackup/proj/dccadd/recpots/opium/c-optgga1.recpot'
 0.000200089092    0.000005499034   0.000000094973   68  '/nobackup/proj/dccadd/recpots/opium/o-optgga1.recpot'
 0.000201164940    0.000004807044   0.000000148837   68  '/nobackup/proj/dccadd/recpots/opium/n-optgga1.recpot'
 0.001493557066    0.000061463391   0.000000834761   68  '/nobackup/proj/dccadd/recpots/opium2/s-optgga1.recpot'
... done

Atom SCF Calculation for H  : Z (AE atom) =   1 : Z (PS atom) =   1
Config String:
Orbitals (num,occ):  1     1.00
Orbitals   (num,l):  1        0
Real-space Grid (nr,dr,rmax): 1661    0.0060240964   10.0000000000
Spherical Bessel Basis (nsws,lmax,cutoff):   37    0  215.3969693925
Confining potential (l,width,scale):  0    3.0000000000  100.0000000000
  1         -0.3256955148   -0.2402866937    0.2820952183   -0.2424203211
  2         -0.3990272352   -0.2404235125    0.2866827953   -0.2460551820
  3         -0.4337531895   -0.2388945872    0.2890202227   -0.2491385842
  4         -0.4485272524   -0.2382477949    0.2898498012   -0.2505233888
  5         -0.4544930012   -0.2380694006    0.2900584791   -0.2510361457
  6         -0.4568927000   -0.2380365831    0.2900887846   -0.2512159823
  7         -0.4578698625   -0.2380374348    0.2900820889   -0.2512789811
  8         -0.4582738151   -0.2380424781    0.2900731193   -0.2513015489
  9         -0.4584430101   -0.2380460638    0.2900674306   -0.2513098901
 10         -0.4585145884   -0.2380480335    0.2900644340   -0.2513130724
 11         -0.4585450863   -0.2380490116    0.2900629774   -0.2513143207
 12         -0.4585581448   -0.2380494735    0.2900622981   -0.2513148214
 13         -0.4585637550   -0.2380496858    0.2900619886   -0.2513150255
 14         -0.4585661708   -0.2380497817    0.2900618496   -0.2513151097
 15         -0.4585672127   -0.2380498246    0.2900617876   -0.2513151447
 16         -0.4585676626   -0.2380498437    0.2900617602   -0.2513151594
 17         -0.4585678570   -0.2380498521    0.2900617481   -0.2513151656
 18         -0.4585679411   -0.2380498558    0.2900617428   -0.2513151682
Atom SCF converged after  18 iterations to a total energy of     -0.45856794

Atom SCF Calculation for C  : Z (AE atom) =   6 : Z (PS atom) =   4
Config String:
Orbitals (num,occ):  2     2.00 2.00
Orbitals   (num,l):  2        0    1
Real-space Grid (nr,dr,rmax): 1661    0.0060240964   10.0000000000
Spherical Bessel Basis (nsws,lmax,cutoff):   37    1  215.3969693925
Confining potential (l,width,scale):  0    3.0000000000  100.0000000000
Confining potential (l,width,scale):  1    3.0000000000  100.0000000000
  1         -5.1306023999   -1.2624456896    4.5135234932   -1.4493313820
  2         -5.2256113755   -1.3695243032    4.3992783633   -1.4155746258
  3         -5.2973814932   -1.3864545587    4.3818006235   -1.4130534193
  4         -5.3319956318   -1.3901258005    4.3779514357   -1.4136698525
  5         -5.3459927845   -1.3920800209    4.3758177771   -1.4138767617
  6         -5.3518263551   -1.3929432102    4.3748683258   -1.4139622423
  7         -5.3542724608   -1.3933086715    4.3744655036   -1.4139985542
  8         -5.3552999871   -1.3934613551    4.3742970194   -1.4140139995
  9         -5.3557318244   -1.3935249713    4.3742267567   -1.4140205220
 10         -5.3559133804   -1.3935514693    4.3741974663   -1.4140232649
 11         -5.3559897374   -1.3935625135    4.3741852487   -1.4140244152
 12         -5.3560218612   -1.3935671212    4.3741801477   -1.4140248967
 13         -5.3560353801   -1.3935690456    4.3741780155   -1.4140250979
 14         -5.3560410711   -1.3935698503    4.3741771233   -1.4140251818
 15         -5.3560434675   -1.3935701872    4.3741767495   -1.4140252168
 16         -5.3560444770   -1.3935703284    4.3741765927   -1.4140252313
 17         -5.3560449023   -1.3935703876    4.3741765269   -1.4140252373
 18         -5.3560450815   -1.3935704125    4.3741764992   -1.4140252399
 19         -5.3560451571   -1.3935704229    4.3741764875   -1.4140252409
Atom SCF converged after  19 iterations to a total energy of     -5.35604516

Atom SCF Calculation for N  : Z (AE atom) =   7 : Z (PS atom) =   5
Config String:
Orbitals (num,occ):  2     2.00 3.00
Orbitals   (num,l):  2        0    1
Real-space Grid (nr,dr,rmax): 1661    0.0060240964   10.0000000000
Spherical Bessel Basis (nsws,lmax,cutoff):   37    1  215.3969693925
Confining potential (l,width,scale):  0    3.0000000000  100.0000000000
Confining potential (l,width,scale):  1    3.0000000000  100.0000000000
  1         -7.6223622581   -3.2885691777    7.0523804581   -1.9351020948
  2         -9.5668108351   -2.0605065103    8.1960281545   -2.2278404424
  3         -9.5636069845   -2.1269538289    8.1249747640   -2.2151674288
  4         -9.5870473231   -2.1362204290    8.1150828249   -2.2155843943
  5         -9.5934768911   -2.1401448997    8.1108643465   -2.2155578260
  6         -9.5972039823   -2.1420042213    8.1088643775   -2.2156237704
  7         -9.5992438495   -2.1429484070    8.1078482854   -2.2156766615
  8         -9.6003507282   -2.1434339236    8.1073257382   -2.2157113655
  9         -9.6009503457   -2.1436842820    8.1070563265   -2.2157327988
 10         -9.6012749683   -2.1438135283    8.1069172880   -2.2157456420
 11         -9.6014506319   -2.1438803105    8.1068454760   -2.2157531932
 12         -9.6015456476   -2.1439148475    8.1068083554   -2.2157575739
 13         -9.6015970198   -2.1439327248    8.1067891506   -2.2157600897
 14         -9.6016247842   -2.1439419872    8.1067792057   -2.2157615229
 15         -9.6016397843   -2.1439467906    8.1067740511   -2.2157623341
 16         -9.6016478855   -2.1439492841    8.1067713769   -2.2157627908
 17         -9.6016522595   -2.1439505797    8.1067699881   -2.2157630466
 18         -9.6016546204   -2.1439512535    8.1067692662   -2.2157631895
 19         -9.6016558944   -2.1439516043    8.1067688906   -2.2157632689
 20         -9.6016565818   -2.1439517871    8.1067686950   -2.2157633129
 21         -9.6016569526   -2.1439518825    8.1067685930   -2.2157633373
 22         -9.6016571525   -2.1439519323    8.1067685398   -2.2157633508
 23         -9.6016572604   -2.1439519583    8.1067685120   -2.2157633582
 24         -9.6016573185   -2.1439519719    8.1067684975   -2.2157633623
Atom SCF converged after  24 iterations to a total energy of     -9.60165732

Atom SCF Calculation for O  : Z (AE atom) =   8 : Z (PS atom) =   6
Config String:
Orbitals (num,occ):  2     2.00 4.00
Orbitals   (num,l):  2        0    1
Real-space Grid (nr,dr,rmax): 1661    0.0060240964   10.0000000000
Spherical Bessel Basis (nsws,lmax,cutoff):   37    1  215.3969693925
Confining potential (l,width,scale):  0    3.0000000000  100.0000000000
Confining potential (l,width,scale):  1    3.0000000000  100.0000000000
  1         -9.8878403530   -7.1216105765   10.1554278596   -2.4512393158
  2        -15.3598965651   -3.1716235949   13.3430027841   -3.1729163852
  3        -15.5584285686   -3.0704835348   13.4529289200   -3.2054549208
  4        -15.5554334791   -3.0889801398   13.4337796921   -3.2050176230
  5        -15.5723165501   -3.0842591806   13.4391262937   -3.2079953676
  6        -15.5747216053   -3.0850254099   13.4383969583   -3.2084278823
  7        -15.5765163854   -3.0850984375   13.4383674730   -3.2087427095
  8        -15.5774728101   -3.0851491416   13.4383388713   -3.2089079913
  9        -15.5779755777   -3.0851867628   13.4383121424   -3.2089934642
 10        -15.5782398212   -3.0852122038   13.4382920589   -3.2090376253
 11        -15.5783787746   -3.0852284395   13.4382784570   -3.2090604503
 12        -15.5784518856   -3.0852384187   13.4382697721   -3.2090722561
 13        -15.5784903751   -3.0852443938   13.4382644326   -3.2090783678
 14        -15.5785106495   -3.0852479033   13.4382612351   -3.2090815350
 15        -15.5785213350   -3.0852499346   13.4382593569   -3.2090831778
 16        -15.5785269696   -3.0852510967   13.4382582698   -3.2090840310
 17        -15.5785299424   -3.0852517555   13.4382576478   -3.2090844744
 18        -15.5785315116   -3.0852521261   13.4382572953   -3.2090847052
 19        -15.5785323404   -3.0852523332   13.4382570969   -3.2090848254
 20        -15.5785327782   -3.0852524484   13.4382569861   -3.2090848880
 21        -15.5785330097   -3.0852525121   13.4382569244   -3.2090849207
 22        -15.5785331321   -3.0852525472   13.4382568903   -3.2090849378
 23        -15.5785331968   -3.0852525665   13.4382568715   -3.2090849467
Atom SCF converged after  23 iterations to a total energy of    -15.57853320

Atom SCF Calculation for S  : Z (AE atom) =  16 : Z (PS atom) =   6
Config String:
Orbitals (num,occ):  2     2.00 4.00
Orbitals   (num,l):  2        0    1
Real-space Grid (nr,dr,rmax): 1661    0.0060240964   10.0000000000
Spherical Bessel Basis (nsws,lmax,cutoff):   37    2  215.3969693925
Confining potential (l,width,scale):  0    3.0000000000  100.0000000000
Confining potential (l,width,scale):  1    3.0000000000  100.0000000000
  1         -9.5204580254   -0.9967078168   10.1554278596   -2.4512393158
  2         -8.7418084162   -2.6490306889    7.9906169987   -1.9609993362
  3         -9.6374030575   -2.3437919340    8.3157264185   -2.0528630487
  4         -9.8365808328   -2.3147429995    8.3499774543   -2.0680606815
  5         -9.9418361816   -2.2995037556    8.3678255173   -2.0768614721
  6         -9.9969970209   -2.2921412618    8.3763445659   -2.0814967383
  7        -10.0257623946   -2.2887420035    8.3802987571   -2.0838413296
  8        -10.0408186759   -2.2871321286    8.3821893827   -2.0850343047
  9        -10.0487264783   -2.2863478395    8.3831168082   -2.0856470457
 10        -10.0528854808   -2.2859620893    8.3835753210   -2.0859628060
 11        -10.0550742327   -2.2857723251    8.3838019567   -2.0861256430
 12        -10.0562267453   -2.2856792255    8.3839137022   -2.0862096414
 13        -10.0568339962   -2.2856337105    8.3839686347   -2.0862529892
 14        -10.0571541757   -2.2856115462    8.3839955517   -2.0862753722
 15        -10.0573231185   -2.2856008004    8.3840086947   -2.0862869381
 16        -10.0574123289   -2.2855956170    8.3840150866   -2.0862929193
 17        -10.0574594729   -2.2855931314    8.3840181811   -2.0862960150
 18        -10.0574844056   -2.2855919480    8.3840196711   -2.0862976188
 19        -10.0574976018   -2.2855913893    8.3840203841   -2.0862984503
 20        -10.0575045915   -2.2855911284    8.3840207227   -2.0862988818
 21        -10.0575082966   -2.2855910082    8.3840208819   -2.0862991060
 22        -10.0575102620   -2.2855909537    8.3840209560   -2.0862992226
 23        -10.0575113055   -2.2855909296    8.3840209899   -2.0862992833
 24        -10.0575118598   -2.2855909193    8.3840210051   -2.0862993149
 25        -10.0575121545   -2.2855909151    8.3840210118   -2.0862993313
 26        -10.0575123113   -2.2855909135    8.3840210146   -2.0862993399
 27        -10.0575123947   -2.2855909131    8.3840210157   -2.0862993444
Atom SCF converged after  27 iterations to a total energy of    -10.05751239

Determining parallel strategy ...
... using space-filling curve
... NGWF load balancing: max    174;  min    173;  average    173
... Projector load balancing: max    110;  min    102;  average    104
... done
Calculating direct Ion-Ion energy ...
Ion-Ion Energy        :   3178988.82141651446000
Basis initialisation ...... NGWF spheres initialised
... Projector spheres initialised
... NGWF tight boxes initialised
... Tight-boxes gathered
... NGWF basis size (local,global):    4424707 389807648
... Nonlocal pseudopotential projector initialisation
... done

========================== Sparse matrix information ===========================
                        Overlap matrix filling:   5.01%
                        Density kernel filling: 100.00%
              NGWF-Proj overlap matrix filling:   1.20%
                    Hamiltonian matrix filling:   5.48%
                  NGWF diagonal matrix filling:   0.02%
                             KS matrix filling: 100.00% 
                           KSKS matrix filling: 100.00% 
================================================================================

Sparse matrix initialisation ... done

Generating smeared ion density ... done
Smeared ion self correction:     -33744.532788
Smeared ion non-self correction: -3178881.464981

Reading NGWFs for initialising the solvent cavity from file "ddec.vacuum_tightbox_ngwfs" ...
 Attempting to read old tightbox format file.
  done

Reading density kernel for initialising the solvent cavity from file "ddec.vacuum_dkn" ... done

Generating solute cavity for implicit solvation ... done

Reading NGWFs from file "ddec.tightbox_ngwfs" ...
 Attempting to read old tightbox format file.
  done
============ Calculation of NGWF S^-1 using Hotelling algorithm ================ 
         Iteration  |  Frobenius norm and Maximum abs value    (of I-S*S_n^-1)   
               1       0.12101085E+03     0.98736263E+00
               2       0.11884387E+03     0.97495588E+00
               3       0.11520683E+03     0.95080708E+00
               4       0.10975824E+03     0.90511383E+00
               5       0.10253488E+03     0.82319251E+00
               6       0.93835851E+02     0.72824973E+00
               7       0.84328237E+02     0.68282340E+00
               8       0.75157396E+02     0.64460546E+00
               9       0.66181416E+02     0.59590918E+00
              10       0.54831325E+02     0.52532122E+00
              11       0.39597593E+02     0.42794300E+00
              12       0.22668844E+02     0.28647690E+00
              13       0.90587047E+01     0.14096660E+00
              14       0.20361063E+01     0.40054121E-01
              15       0.16288704E+00     0.42959157E-02
              16       0.17103290E-02     0.59492269E-04
              17       0.29516275E-06     0.14236259E-07
              18       0.24889695E-12     0.11546319E-13
================================================================================
Calculating local pseudopotential in open BC on the fine real space grid ...
... done


Reading density kernel from file "ddec.dkn" ... done

Reusing previously generated solute cavity.
MG BCs: +ve charge blocks (gridpoints):    525456 (   58920752).
MG BCs: -ve charge blocks (gridpoints):     88898 (    3083768).
MG BCs:     Elided blocks (gridpoints):   3725387 (  467470609).
MG BCs: Computational effort saved:  99.8840%.
MG BCs: Charge after coarse-graining:           -0.0032045.
MG DL_MG: Calling solver with defect correction order = 8
MG DL_MG: Solver finished
MG Hartree energy from (\int phi*rho dr):              3041.795737
MG Hartree energy from (\int eps (grad phi)^2 dr):     3041.579409
MG Discrepancy due to finite box and discretization:     -0.216327 (  -0.00711%)
MG Correction to account for finite box:                  0.003979
MG Remaining discrepancy, due to discretization:         -0.212348 (  -0.00698%)

======================== Writing density and potential =========================
Writing "ddec_density.cube" ... done
Writing "ddec_potential.cube" ... done
WARNING: The pure electrostatic potential (Coulomb ions+electrons) will not
         be output: calculation is not in vacuum.
================================================================================

    Mulliken Atomic Populations
    ---------------------------
Species  Ion    Total   Charge (e)
==================================
  H      1       0.688      0.312
  C      2       4.880     -0.880
  H      3       0.701      0.299
  H      4       0.689      0.311
  C      5       3.433      0.567
  O      6       6.650     -0.650
  N      7       5.549     -0.549
  H      8       0.542      0.458
  C      9       4.147     -0.147
  H     10       0.731      0.269
  C     11       4.571     -0.571
  H     12       0.745      0.255
  H     13       0.699      0.301
  C     14       3.314      0.686
  O     15       6.720     -0.720
  O     16       6.697     -0.697
  C     17       3.462      0.538
  O     18       6.624     -0.624
  N     19       5.565     -0.565
  H     20       0.558      0.442
  C     21       4.172     -0.172
  H     22       0.667      0.333
  C     23       4.514     -0.514
  H     24       0.712      0.288
  H     25       0.737      0.263
  C     26       3.995      0.005
  C     27       4.266     -0.266
  H     28       0.736      0.264
  C     29       4.290     -0.290
  H     30       0.711      0.289
  C     31       4.305     -0.305
  H     32       0.705      0.295
  C     33       4.295     -0.295
  H     34       0.708      0.292
  C     35       4.269     -0.269
  H     36       0.734      0.266
  C     37       3.459      0.541
  O     38       6.632     -0.632
  N     39       5.545     -0.545
  H     40       0.569      0.431
  C     41       4.161     -0.161
  H     42       0.708      0.292
  C     43       4.516     -0.516
  H     44       0.717      0.283
  H     45       0.743      0.257
  C     46       4.053     -0.053
  C     47       4.138     -0.138
  H     48       0.710      0.290
  N     49       5.521     -0.521
  H     50       0.569      0.431
  C     51       3.870      0.130
  C     52       4.320     -0.320
  H     53       0.723      0.277
  C     54       4.302     -0.302
  H     55       0.724      0.276
  C     56       4.308     -0.308
  H     57       0.714      0.286
  C     58       4.287     -0.287
  H     59       0.721      0.279
  C     60       4.037     -0.037
  C     61       3.457      0.543
  O     62       6.628     -0.628
  N     63       5.537     -0.537
  H     64       0.560      0.440
  C     65       4.177     -0.177
  H     66       0.692      0.308
  C     67       4.509     -0.509
  H     68       0.751      0.249
  H     69       0.704      0.296
  C     70       4.606     -0.606
  H     71       0.738      0.262
  H     72       0.729      0.271
  C     73       3.327      0.673
  O     74       6.774     -0.774
  O     75       6.779     -0.779
  C     76       3.465      0.535
  O     77       6.639     -0.639
  N     78       5.557     -0.557
  H     79       0.559      0.441
  C     80       4.167     -0.167
  H     81       0.695      0.305
  C     82       4.222     -0.222
  H     83       0.730      0.270
  C     84       4.771     -0.771
  H     85       0.733      0.267
  H     86       0.747      0.253
  H     87       0.736      0.264
  C     88       4.744     -0.744
  H     89       0.793      0.207
  H     90       0.757      0.243
  H     91       0.720      0.280
  C     92       3.477      0.523
  O     93       6.630     -0.630
  N     94       5.548     -0.548
  H     95       0.540      0.460
  C     96       4.177     -0.177
  H     97       0.677      0.323
  C     98       4.526     -0.526
  H     99       0.705      0.295
  H    100       0.689      0.311
  C    101       4.550     -0.550
  H    102       0.757      0.243
  H    103       0.693      0.307
  C    104       3.419      0.581
  O    105       6.631     -0.631
  N    106       5.841     -0.841
  H    107       0.543      0.457
  H    108       0.577      0.423
  C    109       3.477      0.523
  O    110       6.626     -0.626
  N    111       5.528     -0.528
  H    112       0.561      0.439
  C    113       4.199     -0.199
  H    114       0.660      0.340
  C    115       4.518     -0.518
  H    116       0.724      0.276
  H    117       0.718      0.282
  C    118       4.240     -0.240
  H    119       0.726      0.274
  C    120       4.772     -0.772
  H    121       0.727      0.273
  H    122       0.750      0.250
  H    123       0.774      0.226
  C    124       4.781     -0.781
  H    125       0.732      0.268
  H    126       0.742      0.258
  H    127       0.755      0.245
  C    128       3.453      0.547
  O    129       6.671     -0.671
  N    130       5.525     -0.525
  H    131       0.552      0.448
  C    132       4.465     -0.465
  H    133       0.687      0.313
  H    134       0.667      0.333
  C    135       3.457      0.543
  O    136       6.614     -0.614
  N    137       5.557     -0.557
  H    138       0.549      0.451
  C    139       4.150     -0.150
  H    140       0.707      0.293
  C    141       4.230     -0.230
  H    142       0.722      0.278
  C    143       4.753     -0.753
  H    144       0.754      0.246
  H    145       0.728      0.272
  H    146       0.765      0.235
  C    147       4.508     -0.508
  H    148       0.761      0.239
  H    149       0.726      0.274
  C    150       4.775     -0.775
  H    151       0.748      0.252
  H    152       0.733      0.267
  H    153       0.744      0.256
  C    154       3.469      0.531
  O    155       6.634     -0.634
  N    156       5.288     -0.288
  C    157       4.380     -0.380
  H    158       0.739      0.261
  H    159       0.712      0.288
  C    160       4.516     -0.516
  H    161       0.711      0.289
  H    162       0.717      0.283
  C    163       4.513     -0.513
  H    164       0.732      0.268
  H    165       0.702      0.298
  C    166       4.170     -0.170
  H    167       0.686      0.314
  C    168       3.449      0.551
  O    169       6.649     -0.649
  N    170       5.530     -0.530
  H    171       0.552      0.448
  C    172       4.134     -0.134
  H    173       0.715      0.285
  C    174       4.514     -0.514
  H    175       0.712      0.288
  H    176       0.722      0.278
  C    177       3.903      0.097
  N    178       5.491     -0.491
  C    179       3.968      0.032
  H    180       0.706      0.294
  N    181       5.520     -0.520
  H    182       0.554      0.446
  C    183       4.206     -0.206
  H    184       0.693      0.307
  C    185       3.469      0.531
  O    186       6.617     -0.617
  N    187       5.295     -0.295
  C    188       4.367     -0.367
  H    189       0.722      0.278
  H    190       0.719      0.281
  C    191       4.479     -0.479
  H    192       0.728      0.272
  H    193       0.746      0.254
  C    194       4.469     -0.469
  H    195       0.726      0.274
  H    196       0.735      0.265
  C    197       4.155     -0.155
  H    198       0.705      0.295
  C    199       3.457      0.543
  O    200       6.620     -0.620
  N    201       5.553     -0.553
  H    202       0.576      0.424
  C    203       4.171     -0.171
  H    204       0.668      0.332
  C    205       4.713     -0.713
  H    206       0.744      0.256
  H    207       0.762      0.238
  H    208       0.745      0.255
  C    209       3.449      0.551
  O    210       6.631     -0.631
  N    211       5.554     -0.554
  H    212       0.566      0.434
  C    213       4.414     -0.414
  H    214       0.703      0.297
  H    215       0.672      0.328
  C    216       3.437      0.563
  O    217       6.650     -0.650
  N    218       5.532     -0.532
  H    219       0.568      0.432
  C    220       4.152     -0.152
  H    221       0.720      0.280
  C    222       4.496     -0.496
  H    223       0.728      0.272
  H    224       0.734      0.266
  C    225       4.212     -0.212
  H    226       0.760      0.240
  C    227       4.765     -0.765
  H    228       0.742      0.258
  H    229       0.744      0.256
  H    230       0.766      0.234
  C    231       4.757     -0.757
  H    232       0.734      0.266
  H    233       0.744      0.256
  H    234       0.766      0.234
  C    235       3.437      0.563
  O    236       6.628     -0.628
  N    237       5.548     -0.548
  H    238       0.549      0.451
  C    239       4.148     -0.148
  H    240       0.715      0.285
  C    241       4.504     -0.504
  H    242       0.749      0.251
  H    243       0.725      0.275
  C    244       4.469     -0.469
  H    245       0.763      0.237
  H    246       0.726      0.274
  C    247       4.519     -0.519
  H    248       0.716      0.284
  H    249       0.746      0.254
  C    250       4.396     -0.396
  H    251       0.718      0.282
  H    252       0.648      0.352
  N    253       5.918     -0.918
  H    254       0.473      0.527
  H    255       0.453      0.547
  H    256       0.472      0.528
  C    257       3.451      0.549
  O    258       6.632     -0.632
  N    259       5.548     -0.548
  H    260       0.552      0.448
  C    261       4.153     -0.153
  H    262       0.722      0.278
  C    263       4.508     -0.508
  H    264       0.747      0.253
  H    265       0.722      0.278
  C    266       4.492     -0.492
  H    267       0.709      0.291
  H    268       0.749      0.251
  C    269       4.533     -0.533
  H    270       0.726      0.274
  H    271       0.706      0.294
  C    272       4.418     -0.418
  H    273       0.680      0.320
  H    274       0.687      0.313
  N    275       5.892     -0.892
  H    276       0.514      0.486
  H    277       0.499      0.501
  H    278       0.500      0.500
  C    279       3.459      0.541
  O    280       6.640     -0.640
  N    281       5.541     -0.541
  H    282       0.546      0.454
  C    283       4.171     -0.171
  H    284       0.693      0.307
  C    285       4.494     -0.494
  H    286       0.733      0.267
  H    287       0.735      0.265
  C    288       4.508     -0.508
  H    289       0.715      0.285
  H    290       0.740      0.260
  C    291       4.516     -0.516
  H    292       0.728      0.272
  H    293       0.738      0.262
  C    294       4.355     -0.355
  H    295       0.707      0.293
  H    296       0.715      0.285
  N    297       5.855     -0.855
  H    298       0.536      0.464
  H    299       0.503      0.497
  H    300       0.507      0.493
  C    301       3.442      0.558
  O    302       6.637     -0.637
  N    303       5.554     -0.554
  H    304       0.582      0.418
  C    305       4.180     -0.180
  H    306       0.676      0.324
  C    307       4.495     -0.495
  H    308       0.747      0.253
  H    309       0.708      0.292
  C    310       4.500     -0.500
  H    311       0.726      0.274
  H    312       0.754      0.246
  C    313       4.512     -0.512
  H    314       0.729      0.271
  H    315       0.714      0.286
  C    316       4.401     -0.401
  H    317       0.678      0.322
  H    318       0.695      0.305
  N    319       5.911     -0.911
  H    320       0.469      0.531
  H    321       0.473      0.527
  H    322       0.476      0.524
  C    323       3.434      0.566
  O    324       6.649     -0.649
  N    325       5.545     -0.545
  H    326       0.570      0.430
  C    327       4.178     -0.178
  H    328       0.701      0.299
  C    329       4.237     -0.237
  H    330       0.741      0.259
  H    331       0.738      0.262
  O    332       6.786     -0.786
  H    333       0.489      0.511
  C    334       3.457      0.543
  O    335       6.617     -0.617
  N    336       5.562     -0.562
  H    337       0.542      0.458
  C    338       4.148     -0.148
  H    339       0.713      0.287
  C    340       4.242     -0.242
  H    341       0.729      0.271
  C    342       4.782     -0.782
  H    343       0.730      0.270
  H    344       0.726      0.274
  H    345       0.747      0.253
  C    346       4.771     -0.771
  H    347       0.734      0.266
  H    348       0.728      0.272
  H    349       0.750      0.250
  C    350       3.455      0.545
  O    351       6.663     -0.663
  N    352       5.534     -0.534
  H    353       0.557      0.443
  C    354       4.190     -0.190
  H    355       0.698      0.302
  C    356       3.985      0.015
  H    357       0.720      0.280
  C    358       4.773     -0.773
  H    359       0.755      0.245
  H    360       0.729      0.271
  H    361       0.734      0.266
  O    362       6.738     -0.738
  H    363       0.470      0.530
  C    364       3.464      0.536
  O    365       6.605     -0.605
  N    366       5.553     -0.553
  H    367       0.544      0.456
  C    368       4.149     -0.149
  H    369       0.710      0.290
  C    370       4.213     -0.213
  H    371       0.766      0.234
  C    372       4.767     -0.767
  H    373       0.741      0.259
  H    374       0.742      0.258
  H    375       0.736      0.264
  C    376       4.748     -0.748
  H    377       0.739      0.261
  H    378       0.738      0.262
  H    379       0.757      0.243
  C    380       3.464      0.536
  O    381       6.657     -0.657
  N    382       5.535     -0.535
  H    383       0.556      0.444
  C    384       4.157     -0.157
  H    385       0.726      0.274
  C    386       4.482     -0.482
  H    387       0.736      0.264
  H    388       0.743      0.257
  C    389       4.225     -0.225
  H    390       0.742      0.258
  C    391       4.746     -0.746
  H    392       0.775      0.225
  H    393       0.757      0.243
  H    394       0.734      0.266
  C    395       4.737     -0.737
  H    396       0.759      0.241
  H    397       0.750      0.250
  H    398       0.775      0.225
  C    399       3.455      0.545
  O    400       6.631     -0.631
  N    401       5.532     -0.532
  H    402       0.566      0.434
  C    403       4.148     -0.148
  H    404       0.712      0.288
  C    405       4.591     -0.591
  H    406       0.690      0.310
  H    407       0.704      0.296
  C    408       3.345      0.655
  O    409       6.740     -0.740
  O    410       6.730     -0.730
  C    411       3.446      0.554
  O    412       6.654     -0.654
  N    413       5.541     -0.541
  H    414       0.553      0.447
  C    415       4.162     -0.162
  H    416       0.708      0.292
  C    417       4.240     -0.240
  H    418       0.717      0.283
  C    419       4.737     -0.737
  H    420       0.741      0.259
  H    421       0.776      0.224
  H    422       0.751      0.249
  C    423       4.749     -0.749
  H    424       0.713      0.287
  H    425       0.759      0.241
  H    426       0.780      0.220
  C    427       3.443      0.557
  O    428       6.632     -0.632
  N    429       5.566     -0.566
  H    430       0.534      0.466
  C    431       4.467     -0.467
  H    432       0.696      0.304
  H    433       0.661      0.339
  C    434       3.452      0.548
  O    435       6.597     -0.597
  N    436       5.562     -0.562
  H    437       0.541      0.459
  C    438       4.179     -0.179
  H    439       0.684      0.316
  C    440       4.582     -0.582
  H    441       0.696      0.304
  H    442       0.737      0.263
  C    443       3.337      0.663
  O    444       6.755     -0.755
  O    445       6.782     -0.782
  C    446       3.461      0.539
  O    447       6.611     -0.611
  N    448       5.563     -0.563
  H    449       0.543      0.457
  C    450       4.171     -0.171
  H    451       0.681      0.319
  C    452       4.757     -0.757
  H    453       0.742      0.258
  H    454       0.710      0.290
  H    455       0.724      0.276
  C    456       3.450      0.550
  O    457       6.606     -0.606
  N    458       5.569     -0.569
  H    459       0.554      0.446
  C    460       4.167     -0.167
  H    461       0.695      0.305
  C    462       4.539     -0.539
  H    463       0.717      0.283
  H    464       0.703      0.297
  C    465       4.048     -0.048
  C    466       4.292     -0.292
  H    467       0.733      0.267
  C    468       4.331     -0.331
  H    469       0.696      0.304
  C    470       3.741      0.259
  O    471       6.724     -0.724
  H    472       0.484      0.516
  C    473       4.326     -0.326
  H    474       0.699      0.301
  C    475       4.308     -0.308
  H    476       0.716      0.284
  C    477       3.447      0.553
  O    478       6.653     -0.653
  N    479       5.544     -0.544
  H    480       0.568      0.432
  C    481       4.182     -0.182
  H    482       0.676      0.324
  C    483       4.532     -0.532
  H    484       0.722      0.278
  H    485       0.683      0.317
  C    486       4.001     -0.001
  C    487       4.270     -0.270
  H    488       0.731      0.269
  C    489       4.296     -0.296
  H    490       0.697      0.303
  C    491       4.305     -0.305
  H    492       0.706      0.294
  C    493       4.303     -0.303
  H    494       0.707      0.293
  C    495       4.293     -0.293
  H    496       0.717      0.283
  C    497       3.443      0.557
  O    498       6.639     -0.639
  N    499       5.550     -0.550
  H    500       0.587      0.413
  C    501       4.210     -0.210
  H    502       0.655      0.345
  C    503       4.263     -0.263
  H    504       0.755      0.245
  H    505       0.684      0.316
  O    506       6.763     -0.763
  H    507       0.503      0.497
  C    508       3.452      0.548
  O    509       6.628     -0.628
  N    510       5.578     -0.578
  H    511       0.551      0.449
  C    512       4.670     -0.670
  H    513       0.698      0.302
  H    514       0.713      0.287
  H    515       0.723      0.277
  H    516       0.681      0.319
  C    517       4.879     -0.879
  H    518       0.698      0.302
  H    519       0.703      0.297
  C    520       3.453      0.547
  O    521       6.616     -0.616
  N    522       5.601     -0.601
  H    523       0.543      0.457
  C    524       4.184     -0.184
  H    525       0.662      0.338
  C    526       4.522     -0.522
  H    527       0.725      0.275
  H    528       0.731      0.269
  C    529       4.496     -0.496
  H    530       0.733      0.267
  H    531       0.719      0.281
  C    532       4.527     -0.527
  H    533       0.728      0.272
  H    534       0.722      0.278
  C    535       4.406     -0.406
  H    536       0.704      0.296
  H    537       0.677      0.323
  N    538       5.860     -0.860
  H    539       0.528      0.472
  H    540       0.516      0.484
  H    541       0.507      0.493
  C    542       3.440      0.560
  O    543       6.609     -0.609
  N    544       5.584     -0.584
  H    545       0.558      0.442
  C    546       4.442     -0.442
  H    547       0.660      0.340
  H    548       0.673      0.327
  C    549       3.456      0.544
  O    550       6.622     -0.622
  N    551       5.533     -0.533
  H    552       0.565      0.435
  C    553       4.166     -0.166
  H    554       0.695      0.305
  C    555       4.262     -0.262
  H    556       0.724      0.276
  H    557       0.709      0.291
  O    558       6.791     -0.791
  H    559       0.455      0.545
  C    560       3.469      0.531
  O    561       6.619     -0.619
  N    562       5.308     -0.308
  C    563       4.382     -0.382
  H    564       0.716      0.284
  H    565       0.719      0.281
  C    566       4.533     -0.533
  H    567       0.697      0.303
  H    568       0.713      0.287
  C    569       4.532     -0.532
  H    570       0.711      0.289
  H    571       0.684      0.316
  C    572       4.182     -0.182
  H    573       0.671      0.329
  C    574       3.441      0.559
  O    575       6.627     -0.627
  N    576       5.555     -0.555
  H    577       0.561      0.439
  C    578       4.167     -0.167
  H    579       0.668      0.332
  C    580       4.780     -0.780
  H    581       0.745      0.255
  H    582       0.717      0.283
  H    583       0.696      0.304
  C    584       3.458      0.542
  O    585       6.622     -0.622
  N    586       5.525     -0.525
  H    587       0.572      0.428
  C    588       4.156     -0.156
  H    589       0.707      0.293
  C    590       4.214     -0.214
  H    591       0.756      0.244
  C    592       4.791     -0.791
  H    593       0.735      0.265
  H    594       0.729      0.271
  H    595       0.724      0.276
  C    596       4.505     -0.505
  H    597       0.739      0.261
  H    598       0.740      0.260
  C    599       4.777     -0.777
  H    600       0.736      0.264
  H    601       0.730      0.270
  H    602       0.758      0.242
  C    603       3.459      0.541
  O    604       6.617     -0.617
  N    605       5.535     -0.535
  H    606       0.561      0.439
  C    607       4.154     -0.154
  H    608       0.695      0.305
  C    609       4.519     -0.519
  H    610       0.719      0.281
  H    611       0.727      0.273
  C    612       4.017     -0.017
  C    613       4.295     -0.295
  H    614       0.705      0.295
  C    615       4.291     -0.291
  H    616       0.701      0.299
  C    617       4.272     -0.272
  H    618       0.740      0.260
  C    619       4.271     -0.271
  H    620       0.703      0.297
  C    621       4.264     -0.264
  H    622       0.733      0.267
  C    623       3.453      0.547
  O    624       6.613     -0.613
  N    625       5.545     -0.545
  H    626       0.561      0.439
  C    627       4.145     -0.145
  H    628       0.716      0.284
  C    629       4.504     -0.504
  H    630       0.696      0.304
  H    631       0.733      0.267
  C    632       4.553     -0.553
  H    633       0.746      0.254
  H    634       0.695      0.305
  C    635       3.448      0.552
  O    636       6.651     -0.651
  N    637       5.832     -0.832
  H    638       0.543      0.457
  H    639       0.573      0.427
  C    640       3.461      0.539
  O    641       6.603     -0.603
  N    642       5.526     -0.526
  H    643       0.577      0.423
  C    644       4.162     -0.162
  H    645       0.701      0.299
  C    646       4.286     -0.286
  H    647       0.696      0.304
  H    648       0.729      0.271
  O    649       6.755     -0.755
  H    650       0.523      0.477
  C    651       3.469      0.531
  O    652       6.633     -0.633
  N    653       5.532     -0.532
  H    654       0.569      0.431
  C    655       4.171     -0.171
  H    656       0.722      0.278
  C    657       4.272     -0.272
  H    658       0.741      0.259
  H    659       0.684      0.316
  O    660       6.787     -0.787
  H    661       0.505      0.495
  C    662       3.456      0.544
  O    663       6.621     -0.621
  N    664       5.548     -0.548
  H    665       0.567      0.433
  C    666       4.161     -0.161
  H    667       0.685      0.315
  C    668       4.479     -0.479
  H    669       0.717      0.283
  H    670       0.752      0.248
  C    671       4.616     -0.616
  H    672       0.731      0.269
  H    673       0.711      0.289
  S    674       5.874      0.126
  C    675       4.893     -0.893
  H    676       0.720      0.280
  H    677       0.706      0.294
  H    678       0.733      0.267
  C    679       3.460      0.540
  O    680       6.616     -0.616
  N    681       5.544     -0.544
  H    682       0.578      0.422
  C    683       4.187     -0.187
  H    684       0.688      0.312
  C    685       3.977      0.023
  H    686       0.766      0.234
  C    687       4.804     -0.804
  H    688       0.709      0.291
  H    689       0.723      0.277
  H    690       0.726      0.274
  O    691       6.746     -0.746
  H    692       0.505      0.495
  C    693       3.462      0.538
  O    694       6.612     -0.612
  N    695       5.557     -0.557
  H    696       0.568      0.432
  C    697       4.174     -0.174
  H    698       0.673      0.327
  C    699       4.503     -0.503
  H    700       0.749      0.251
  H    701       0.714      0.286
  C    702       4.517     -0.517
  H    703       0.707      0.293
  H    704       0.724      0.276
  C    705       4.538     -0.538
  H    706       0.726      0.274
  H    707       0.715      0.285
  C    708       4.396     -0.396
  H    709       0.676      0.324
  H    710       0.694      0.306
  N    711       5.920     -0.920
  H    712       0.474      0.526
  H    713       0.463      0.537
  H    714       0.473      0.527
  C    715       3.449      0.551
  O    716       6.642     -0.642
  N    717       5.536     -0.536
  H    718       0.574      0.426
  C    719       4.173     -0.173
  H    720       0.688      0.312
  C    721       4.232     -0.232
  H    722       0.738      0.262
  C    723       4.720     -0.720
  H    724       0.753      0.247
  H    725       0.759      0.241
  H    726       0.746      0.254
  C    727       4.486     -0.486
  H    728       0.750      0.250
  H    729       0.746      0.254
  C    730       4.718     -0.718
  H    731       0.768      0.232
  H    732       0.748      0.252
  H    733       0.767      0.233
  C    734       3.460      0.540
  O    735       6.628     -0.628
  N    736       5.538     -0.538
  H    737       0.575      0.425
  C    738       4.149     -0.149
  H    739       0.708      0.292
  C    740       4.504     -0.504
  H    741       0.744      0.256
  H    742       0.722      0.278
  C    743       4.221     -0.221
  H    744       0.743      0.257
  C    745       4.740     -0.740
  H    746       0.752      0.248
  H    747       0.757      0.243
  H    748       0.754      0.246
  C    749       4.737     -0.737
  H    750       0.759      0.241
  H    751       0.751      0.249
  H    752       0.767      0.233
  C    753       3.457      0.543
  O    754       6.636     -0.636
  N    755       5.540     -0.540
  H    756       0.559      0.441
  C    757       4.182     -0.182
  H    758       0.678      0.322
  C    759       4.504     -0.504
  H    760       0.708      0.292
  H    761       0.742      0.258
  C    762       4.589     -0.589
  H    763       0.738      0.262
  H    764       0.731      0.269
  C    765       3.337      0.663
  O    766       6.770     -0.770
  O    767       6.784     -0.784
  C    768       3.469      0.531
  O    769       6.635     -0.635
  N    770       5.317     -0.317
  C    771       4.366     -0.366
  H    772       0.725      0.275
  H    773       0.719      0.281
  C    774       4.513     -0.513
  H    775       0.736      0.264
  H    776       0.712      0.288
  C    777       4.530     -0.530
  H    778       0.715      0.285
  H    779       0.720      0.280
  C    780       4.186     -0.186
  H    781       0.671      0.329
  C    782       3.453      0.547
  O    783       6.646     -0.646
  N    784       5.550     -0.550
  H    785       0.559      0.441
  C    786       4.171     -0.171
  H    787       0.678      0.322
  C    788       4.508     -0.508
  H    789       0.707      0.293
  H    790       0.737      0.263
  C    791       4.003     -0.003
  C    792       4.274     -0.274
  H    793       0.725      0.275
  C    794       4.292     -0.292
  H    795       0.711      0.289
  C    796       4.291     -0.291
  H    797       0.703      0.297
  C    798       4.271     -0.271
  H    799       0.739      0.261
  C    800       4.281     -0.281
  H    801       0.727      0.273
  C    802       3.458      0.542
  O    803       6.631     -0.631
  N    804       5.538     -0.538
  H    805       0.562      0.438
  C    806       4.177     -0.177
  H    807       0.679      0.321
  C    808       4.811     -0.811
  H    809       0.722      0.278
  H    810       0.705      0.295
  H    811       0.709      0.291
  C    812       3.450      0.550
  O    813       6.616     -0.616
  N    814       5.579     -0.579
  H    815       0.544      0.456
  C    816       4.183     -0.183
  H    817       0.669      0.331
  C    818       4.817     -0.817
  H    819       0.729      0.271
  H    820       0.701      0.299
  H    821       0.710      0.290
  C    822       3.451      0.549
  O    823       6.637     -0.637
  N    824       5.560     -0.560
  H    825       0.570      0.430
  C    826       4.184     -0.184
  H    827       0.672      0.328
  C    828       4.511     -0.511
  H    829       0.732      0.268
  H    830       0.685      0.315
  C    831       4.567     -0.567
  H    832       0.748      0.252
  H    833       0.684      0.316
  C    834       3.424      0.576
  O    835       6.656     -0.656
  N    836       5.876     -0.876
  H    837       0.530      0.470
  H    838       0.545      0.455
  C    839       3.452      0.548
  O    840       6.634     -0.634
  N    841       5.541     -0.541
  H    842       0.570      0.430
  C    843       4.162     -0.162
  H    844       0.688      0.312
  C    845       4.536     -0.536
  H    846       0.730      0.270
  H    847       0.705      0.295
  C    848       3.428      0.572
  O    849       6.622     -0.622
  N    850       5.807     -0.807
  H    851       0.534      0.466
  H    852       0.557      0.443
  C    853       3.473      0.527
  O    854       6.606     -0.606
  N    855       5.308     -0.308
  C    856       4.396     -0.396
  H    857       0.715      0.285
  H    858       0.707      0.293
  C    859       4.532     -0.532
  H    860       0.730      0.270
  H    861       0.713      0.287
  C    862       4.529     -0.529
  H    863       0.707      0.293
  H    864       0.719      0.281
  C    865       4.188     -0.188
  H    866       0.659      0.341
  C    867       3.449      0.551
  O    868       6.656     -0.656
  N    869       5.551     -0.551
  H    870       0.575      0.425
  C    871       4.188     -0.188
  H    872       0.669      0.331
  C    873       4.587     -0.587
  H    874       0.710      0.290
  H    875       0.700      0.300
  C    876       3.355      0.645
  O    877       6.691     -0.691
  O    878       6.724     -0.724
  C    879       3.448      0.552
  O    880       6.673     -0.673
  N    881       5.526     -0.526
  H    882       0.546      0.454
  C    883       4.168     -0.168
  H    884       0.706      0.294
  C    885       4.222     -0.222
  H    886       0.759      0.241
  C    887       4.738     -0.738
  H    888       0.740      0.260
  H    889       0.757      0.243
  H    890       0.756      0.244
  C    891       4.489     -0.489
  H    892       0.739      0.261
  H    893       0.748      0.252
  C    894       4.736     -0.736
  H    895       0.762      0.238
  H    896       0.764      0.236
  H    897       0.753      0.247
  C    898       3.458      0.542
  O    899       6.628     -0.628
  N    900       5.555     -0.555
  H    901       0.569      0.431
  C    902       4.159     -0.159
  H    903       0.712      0.288
  C    904       4.239     -0.239
  H    905       0.727      0.273
  C    906       4.774     -0.774
  H    907       0.750      0.250
  H    908       0.731      0.269
  H    909       0.726      0.274
  C    910       4.788     -0.788
  H    911       0.732      0.268
  H    912       0.745      0.255
  H    913       0.730      0.270
  C    914       3.456      0.544
  O    915       6.626     -0.626
  N    916       5.549     -0.549
  H    917       0.544      0.456
  C    918       4.146     -0.146
  H    919       0.723      0.277
  C    920       4.235     -0.235
  H    921       0.733      0.267
  C    922       4.742     -0.742
  H    923       0.755      0.245
  H    924       0.760      0.240
  H    925       0.735      0.265
  C    926       4.469     -0.469
  H    927       0.769      0.231
  H    928       0.747      0.253
  C    929       4.719     -0.719
  H    930       0.767      0.233
  H    931       0.766      0.234
  H    932       0.747      0.253
  C    933       3.454      0.546
  O    934       6.655     -0.655
  N    935       5.525     -0.525
  H    936       0.562      0.438
  C    937       4.161     -0.161
  H    938       0.705      0.295
  C    939       4.502     -0.502
  H    940       0.768      0.232
  H    941       0.704      0.296
  C    942       4.017     -0.017
  C    943       4.267     -0.267
  H    944       0.729      0.271
  C    945       4.315     -0.315
  H    946       0.717      0.283
  C    947       3.749      0.251
  O    948       6.736     -0.736
  H    949       0.480      0.520
  C    950       4.311     -0.311
  H    951       0.723      0.277
  C    952       4.298     -0.298
  H    953       0.729      0.271
  C    954       3.451      0.549
  O    955       6.617     -0.617
  N    956       5.563     -0.563
  H    957       0.538      0.462
  C    958       4.150     -0.150
  H    959       0.706      0.294
  C    960       4.500     -0.500
  H    961       0.712      0.288
  H    962       0.718      0.282
  C    963       4.556     -0.556
  H    964       0.724      0.276
  H    965       0.714      0.286
  C    966       3.440      0.560
  O    967       6.619     -0.619
  N    968       5.816     -0.816
  H    969       0.592      0.408
  H    970       0.558      0.442
  C    971       3.467      0.533
  O    972       6.646     -0.646
  N    973       5.551     -0.551
  H    974       0.538      0.462
  C    975       4.158     -0.158
  H    976       0.717      0.283
  C    977       4.516     -0.516
  H    978       0.709      0.291
  H    979       0.720      0.280
  C    980       4.031     -0.031
  C    981       4.303     -0.303
  H    982       0.706      0.294
  C    983       4.323     -0.323
  H    984       0.744      0.256
  C    985       3.762      0.238
  O    986       6.694     -0.694
  H    987       0.501      0.499
  C    988       4.280     -0.280
  H    989       0.728      0.272
  C    990       4.289     -0.289
  H    991       0.705      0.295
  C    992       3.457      0.543
  O    993       6.599     -0.599
  N    994       5.572     -0.572
  H    995       0.540      0.460
  C    996       4.189     -0.189
  H    997       0.679      0.321
  C    998       4.516     -0.516
  H    999       0.731      0.269
  H   1000       0.685      0.315
  C   1001       4.632     -0.632
  H   1002       0.723      0.277
  H   1003       0.732      0.268
  S   1004       5.889      0.111
  C   1005       4.912     -0.912
  H   1006       0.737      0.263
  H   1007       0.693      0.307
  H   1008       0.702      0.298
  C   1009       3.438      0.562
  O   1010       6.645     -0.645
  N   1011       5.531     -0.531
  H   1012       0.554      0.446
  C   1013       4.177     -0.177
  H   1014       0.678      0.322
  C   1015       4.600     -0.600
  H   1016       0.692      0.308
  H   1017       0.732      0.268
  C   1018       3.339      0.661
  O   1019       6.732     -0.732
  O   1020       6.731     -0.731
  C   1021       3.457      0.543
  O   1022       6.610     -0.610
  N   1023       5.547     -0.547
  H   1024       0.563      0.437
  C   1025       4.137     -0.137
  H   1026       0.724      0.276
  C   1027       4.563     -0.563
  H   1028       0.736      0.264
  H   1029       0.724      0.276
  C   1030       3.336      0.664
  O   1031       6.710     -0.710
  O   1032       6.711     -0.711
  C   1033       3.456      0.544
  O   1034       6.650     -0.650
  N   1035       5.543     -0.543
  H   1036       0.562      0.438
  C   1037       4.148     -0.148
  H   1038       0.713      0.287
  C   1039       4.485     -0.485
  H   1040       0.744      0.256
  H   1041       0.744      0.256
  C   1042       4.230     -0.230
  H   1043       0.732      0.268
  C   1044       4.749     -0.749
  H   1045       0.765      0.235
  H   1046       0.752      0.248
  H   1047       0.745      0.255
  C   1048       4.723     -0.723
  H   1049       0.765      0.235
  H   1050       0.776      0.224
  H   1051       0.754      0.246
  C   1052       3.449      0.551
  O   1053       6.646     -0.646
  N   1054       5.531     -0.531
  H   1055       0.552      0.448
  C   1056       4.147     -0.147
  H   1057       0.725      0.275
  C   1058       4.516     -0.516
  H   1059       0.753      0.247
  H   1060       0.709      0.291
  C   1061       4.021     -0.021
  C   1062       4.252     -0.252
  H   1063       0.757      0.243
  C   1064       4.315     -0.315
  H   1065       0.719      0.281
  C   1066       3.752      0.248
  O   1067       6.706     -0.706
  H   1068       0.510      0.490
  C   1069       4.301     -0.301
  H   1070       0.726      0.274
  C   1071       4.282     -0.282
  H   1072       0.729      0.271
  C   1073       3.460      0.540
  O   1074       6.618     -0.618
  N   1075       5.541     -0.541
  H   1076       0.558      0.442
  C   1077       4.153     -0.153
  H   1078       0.703      0.297
  C   1079       4.215     -0.215
  H   1080       0.762      0.238
  C   1081       4.743     -0.743
  H   1082       0.738      0.262
  H   1083       0.750      0.250
  H   1084       0.760      0.240
  C   1085       4.740     -0.740
  H   1086       0.738      0.262
  H   1087       0.747      0.253
  H   1088       0.760      0.240
  C   1089       3.454      0.546
  O   1090       6.638     -0.638
  N   1091       5.541     -0.541
  H   1092       0.548      0.452
  C   1093       4.422     -0.422
  H   1094       0.713      0.287
  H   1095       0.692      0.308
  C   1096       3.465      0.535
  O   1097       6.619     -0.619
  N   1098       5.545     -0.545
  H   1099       0.556      0.444
  C   1100       4.186     -0.186
  H   1101       0.688      0.312
  C   1102       4.233     -0.233
  H   1103       0.747      0.253
  H   1104       0.730      0.270
  O   1105       6.768     -0.768
  H   1106       0.518      0.482
  C   1107       3.461      0.539
  O   1108       6.609     -0.609
  N   1109       5.564     -0.564
  H   1110       0.532      0.468
  C   1111       4.137     -0.137
  H   1112       0.719      0.281
  C   1113       4.571     -0.571
  H   1114       0.705      0.295
  H   1115       0.718      0.282
  C   1116       3.347      0.653
  O   1117       6.718     -0.718
  O   1118       6.731     -0.731
  C   1119       3.454      0.546
  O   1120       6.671     -0.671
  N   1121       5.513     -0.513
  H   1122       0.561      0.439
  C   1123       4.166     -0.166
  H   1124       0.709      0.291
  C   1125       4.463     -0.463
  H   1126       0.751      0.249
  H   1127       0.752      0.248
  C   1128       4.209     -0.209
  H   1129       0.755      0.245
  C   1130       4.748     -0.748
  H   1131       0.769      0.231
  H   1132       0.721      0.279
  H   1133       0.762      0.238
  C   1134       4.774     -0.774
  H   1135       0.754      0.246
  H   1136       0.729      0.271
  H   1137       0.749      0.251
  C   1138       3.455      0.545
  O   1139       6.624     -0.624
  N   1140       5.528     -0.528
  H   1141       0.575      0.425
  C   1142       4.170     -0.170
  H   1143       0.675      0.325
  C   1144       4.499     -0.499
  H   1145       0.765      0.235
  H   1146       0.723      0.277
  C   1147       4.601     -0.601
  H   1148       0.738      0.262
  H   1149       0.708      0.292
  C   1150       3.335      0.665
  O   1151       6.765     -0.765
  O   1152       6.775     -0.775
  C   1153       3.455      0.545
  O   1154       6.624     -0.624
  N   1155       5.561     -0.561
  H   1156       0.540      0.460
  C   1157       4.148     -0.148
  H   1158       0.696      0.304
  C   1159       4.248     -0.248
  H   1160       0.703      0.297
  C   1161       4.801     -0.801
  H   1162       0.738      0.262
  H   1163       0.709      0.291
  H   1164       0.747      0.253
  C   1165       4.494     -0.494
  H   1166       0.730      0.270
  H   1167       0.781      0.219
  C   1168       4.765     -0.765
  H   1169       0.711      0.289
  H   1170       0.759      0.241
  H   1171       0.763      0.237
  C   1172       3.455      0.545
  O   1173       6.623     -0.623
  N   1174       5.570     -0.570
  H   1175       0.546      0.454
  C   1176       4.481     -0.481
  H   1177       0.664      0.336
  H   1178       0.660      0.340
  C   1179       3.445      0.555
  O   1180       6.617     -0.617
  N   1181       5.554     -0.554
  H   1182       0.581      0.419
  C   1183       4.185     -0.185
  H   1184       0.662      0.338
  C   1185       4.489     -0.489
  H   1186       0.745      0.255
  H   1187       0.708      0.292
  C   1188       4.582     -0.582
  H   1189       0.706      0.294
  H   1190       0.711      0.289
  C   1191       3.430      0.570
  O   1192       6.624     -0.624
  N   1193       5.857     -0.857
  H   1194       0.522      0.478
  H   1195       0.533      0.467
  C   1196       3.451      0.549
  O   1197       6.617     -0.617
  N   1198       5.546     -0.546
  H   1199       0.579      0.421
  C   1200       4.154     -0.154
  H   1201       0.687      0.313
  C   1202       4.497     -0.497
  H   1203       0.715      0.285
  H   1204       0.757      0.243
  C   1205       3.891      0.109
  N   1206       5.459     -0.459
  C   1207       3.956      0.044
  H   1208       0.686      0.314
  N   1209       5.502     -0.502
  H   1210       0.555      0.445
  C   1211       4.192     -0.192
  H   1212       0.711      0.289
  C   1213       3.455      0.545
  O   1214       6.597     -0.597
  N   1215       5.560     -0.560
  H   1216       0.571      0.429
  C   1217       4.159     -0.159
  H   1218       0.696      0.304
  C   1219       4.526     -0.526
  H   1220       0.721      0.279
  H   1221       0.710      0.290
  C   1222       4.489     -0.489
  H   1223       0.737      0.263
  H   1224       0.733      0.267
  C   1225       4.404     -0.404
  H   1226       0.685      0.315
  H   1227       0.719      0.281
  N   1228       5.542     -0.542
  H   1229       0.546      0.454
  C   1230       3.444      0.556
  N   1231       5.829     -0.829
  H   1232       0.517      0.483
  H   1233       0.507      0.493
  N   1234       5.842     -0.842
  H   1235       0.514      0.486
  H   1236       0.505      0.495
  C   1237       3.453      0.547
  O   1238       6.616     -0.616
  N   1239       5.559     -0.559
  H   1240       0.544      0.456
  C   1241       4.179     -0.179
  H   1242       0.697      0.303
  C   1243       4.014     -0.014
  H   1244       0.694      0.306
  C   1245       4.809     -0.809
  H   1246       0.745      0.255
  H   1247       0.710      0.290
  H   1248       0.715      0.285
  O   1249       6.769     -0.769
  H   1250       0.482      0.518
  C   1251       3.464      0.536
  O   1252       6.600     -0.600
  N   1253       5.543     -0.543
  H   1254       0.570      0.430
  C   1255       4.154     -0.154
  H   1256       0.692      0.308
  C   1257       4.478     -0.478
  H   1258       0.750      0.250
  H   1259       0.737      0.263
  C   1260       4.493     -0.493
  H   1261       0.741      0.259
  H   1262       0.746      0.254
  C   1263       4.492     -0.492
  H   1264       0.757      0.243
  H   1265       0.716      0.284
  C   1266       4.401     -0.401
  H   1267       0.695      0.305
  H   1268       0.702      0.298
  N   1269       5.842     -0.842
  H   1270       0.534      0.466
  H   1271       0.513      0.487
  H   1272       0.555      0.445
  C   1273       3.450      0.550
  O   1274       6.624     -0.624
  N   1275       5.548     -0.548
  H   1276       0.573      0.427
  C   1277       4.152     -0.152
  H   1278       0.708      0.292
  C   1279       4.230     -0.230
  H   1280       0.747      0.253
  C   1281       4.746     -0.746
  H   1282       0.751      0.249
  H   1283       0.755      0.245
  H   1284       0.734      0.266
  C   1285       4.494     -0.494
  H   1286       0.729      0.271
  H   1287       0.757      0.243
  C   1288       4.730     -0.730
  H   1289       0.756      0.244
  H   1290       0.762      0.238
  H   1291       0.764      0.236
  C   1292       3.457      0.543
  O   1293       6.629     -0.629
  N   1294       5.544     -0.544
  H   1295       0.566      0.434
  C   1296       4.150     -0.150
  H   1297       0.691      0.309
  C   1298       4.522     -0.522
  H   1299       0.739      0.261
  H   1300       0.707      0.293
  C   1301       4.589     -0.589
  H   1302       0.730      0.270
  H   1303       0.708      0.292
  C   1304       3.346      0.654
  O   1305       6.732     -0.732
  O   1306       6.697     -0.697
  C   1307       3.452      0.548
  O   1308       6.642     -0.642
  N   1309       5.544     -0.544
  H   1310       0.570      0.430
  C   1311       4.173     -0.173
  H   1312       0.695      0.305
  C   1313       4.492     -0.492
  H   1314       0.746      0.254
  H   1315       0.715      0.285
  C   1316       4.581     -0.581
  H   1317       0.745      0.255
  H   1318       0.749      0.251
  C   1319       3.328      0.672
  O   1320       6.780     -0.780
  O   1321       6.772     -0.772
  C   1322       3.452      0.548
  O   1323       6.645     -0.645
  N   1324       5.541     -0.541
  H   1325       0.564      0.436
  C   1326       4.143     -0.143
  H   1327       0.704      0.296
  C   1328       4.486     -0.486
  H   1329       0.734      0.266
  H   1330       0.746      0.254
  C   1331       4.222     -0.222
  H   1332       0.752      0.248
  C   1333       4.725     -0.725
  H   1334       0.751      0.249
  H   1335       0.769      0.231
  H   1336       0.747      0.253
  C   1337       4.745     -0.745
  H   1338       0.760      0.240
  H   1339       0.749      0.251
  H   1340       0.758      0.242
  C   1341       3.462      0.538
  O   1342       6.625     -0.625
  N   1343       5.543     -0.543
  H   1344       0.565      0.435
  C   1345       4.152     -0.152
  H   1346       0.702      0.298
  C   1347       4.502     -0.502
  H   1348       0.723      0.277
  H   1349       0.746      0.254
  C   1350       4.485     -0.485
  H   1351       0.756      0.244
  H   1352       0.726      0.274
  C   1353       4.376     -0.376
  H   1354       0.724      0.276
  H   1355       0.710      0.290
  N   1356       5.546     -0.546
  H   1357       0.559      0.441
  C   1358       3.455      0.545
  N   1359       5.818     -0.818
  H   1360       0.557      0.443
  H   1361       0.538      0.462
[...]
 H    5905         4.4314525       0.0000000       8.6764378
 C    5906        23.7743449       0.0930508      36.4654489
 O    5907        27.5674720       0.0395884      23.3459853
 N    5908        32.8055036       0.0570176      27.5396011
 H    5909         3.3772649       0.0000000       8.6760082
 C    5910        20.9532857       0.0972260      36.4793263
 H    5911         4.1521055       0.0000000       8.6777289
 C    5912        30.9328876       0.0928509      36.4502241
 H    5913         3.0337861       0.0000000       8.6769979
 H    5914         3.3755534       0.0000000       8.6773259
 C    5915        20.2249833       0.0919160      36.4494787
 O    5916        29.9950337       0.0367286      23.3155356
 N    5917        33.3948742       0.0623564      27.5782589
 H    5918         2.4778663       0.0000000       8.6794598
 H    5919         1.9736209       0.0000000       8.6800607
 C    5920        25.5147801       0.0915394      36.4541439
 O    5921        26.9258964       0.0403150      23.3744149
 N    5922        29.8556258       0.0589249      27.5411327
 H    5923         2.5849776       0.0000000       8.6776937
 C    5924        22.7039182       0.0891574      36.4482392
 H    5925         3.6037051       0.0000000       8.6785729
 C    5926        31.8201704       0.0985634      36.4876374
 H    5927         3.4528695       0.0000000       8.6802685
 H    5928         3.7852363       0.0000000       8.6767058
 C    5929        19.4500740       0.0961683      36.4609239
 O    5930        31.8488522       0.0407062      23.3349402
 N    5931        31.6472637       0.0578209      27.5238165
 H    5932         2.4109490       0.0000000       8.6806469
 H    5933         2.3130624       0.0000000       8.6806419
 C    5934        22.8702127       0.0943781      36.4705932
 O    5935        28.7693120       0.0386647      23.3560701
 N    5936        27.8739897       0.0581401      27.5388012
 H    5937         4.7247001       0.0000000       8.6819201
 C    5938        24.3068608       0.0962884      36.4723698
 H    5939         4.2139857       0.0000000       8.6742139
 C    5940        26.4775324       0.0923448      36.4618402
 H    5941         4.3894285       0.0000000       8.6739553
 H    5942         4.8332360       0.0000000       8.6729936
 C    5943        30.3430298       0.0931539      36.4619032
 H    5944         4.4162143       0.0000000       8.6759944
 H    5945         4.7742363       0.0000000       8.6827926
 C    5946        17.8553197       0.0991486      36.4994410
 O    5947        34.4835099       0.0384407      23.3469890
 O    5948        34.0009403       0.0361880      23.3043479
 C    5949        24.7718615       0.0916874      36.4673605
 O    5950        28.7543590       0.0388604      23.3228147
 N    5951        25.6029962       0.0584614      27.5633041
 H    5952         4.5526247       0.0000000       8.6790422
 C    5953        23.9096353       0.0910852      36.4719872
 H    5954         4.7927687       0.0000000       8.6771646
 C    5955        21.5736706       0.0916085      36.4633343
 H    5956         4.5979861       0.0000000       8.6777834
 C    5957        28.6275438       0.0960573      36.4845651
 H    5958         4.2582199       0.0000000       8.6723252
 H    5959         4.1016450       0.0000000       8.6786667
 H    5960         4.6204779       0.0000000       8.6807122
 O    5961        29.8061213       0.0385046      23.3325857
 H    5962         1.9875901       0.0000000       8.6772801
 C    5963        23.1891965       0.0930944      36.4568446
 O    5964        27.8992338       0.0407032      23.3477990
 N    5965        24.4417562       0.0554854      27.5341612
 C    5966        23.2606427       0.0946687      36.4764034
 H    5967         4.3082583       0.0000000       8.6822624
 H    5968         4.3268079       0.0000000       8.6800469
 C    5969        24.9661670       0.0944098      36.4754903
 H    5970         4.1830602       0.0000000       8.6798758
 H    5971         4.1754362       0.0000000       8.6851226
 C    5972        27.5983194       0.0939760      36.4624311
 H    5973         4.1651452       0.0000000       8.6756761
 H    5974         4.6192353       0.0000000       8.6780178
 C    5975        24.9600794       0.0948584      36.4655232
 H    5976         4.4279665       0.0000000       8.6738676
 C    5977        23.9739828       0.0925307      36.4636529
 O    5978        28.6087320       0.0390373      23.3422250
 N    5979        30.2960647       0.0608068      27.5514384
 H    5980         2.5145340       0.0000000       8.6762369
 C    5981        24.9409486       0.0918883      36.4494337
 H    5982         3.9948300       0.0000000       8.6761444
 H    5983         3.8041879       0.0000000       8.6725983
 C    5984        20.5119576       0.0989985      36.4914686
 O    5985        29.8622263       0.0387786      23.3432222
 N    5986        31.6537357       0.0593300      27.5524840
 H    5987         3.2839448       0.0000000       8.6770697
 C    5988        24.1171838       0.0913853      36.4533694
 H    5989         4.0988695       0.0000000       8.6762050
 C    5990        25.6360053       0.0982416      36.4903677
 H    5991         4.1205177       0.0000000       8.6791295
 C    5992        30.4687045       0.0948608      36.4530390
 H    5993         3.7380312       0.0000000       8.6753651
 H    5994         4.3344958       0.0000000       8.6796618
 H    5995         4.5508367       0.0000000       8.6737188
 C    5996        24.8912040       0.0938224      36.4757012
 H    5997         4.4467436       0.0000000       8.6747851
 H    5998         4.1686217       0.0000000       8.6773165
 C    5999        28.7184831       0.0921701      36.4697635
 H    6000         4.2774249       0.0000000       8.6744037
 H    6001         4.1998399       0.0000000       8.6777658
 H    6002         4.5653329       0.0000000       8.6740094
 C    6003        22.2655038       0.0915874      36.4616104
 O    6004        26.7519081       0.0416063      23.3680807
 N    6005        30.2451715       0.0583327      27.5627502
 H    6006         2.5898885       0.0000000       8.6774070
 C    6007        21.1959585       0.0890687      36.4586653
 H    6008         4.9103853       0.0000000       8.6738905
 C    6009        28.1895683       0.0944247      36.4716133
 H    6010         3.8489308       0.0000000       8.6761562
 H    6011         4.7247001       0.0000000       8.6753392
 C    6012        25.5093383       0.0951185      36.4499053
 H    6013         4.1461843       0.0000000       8.6730637
 H    6014         3.9932940       0.0000000       8.6744991
 C    6015        23.1847760       0.0913192      36.4592005
 H    6016         4.5258232       0.0000000       8.6765066
 H    6017         4.0275097       0.0000000       8.6833393
 N    6018        31.0162577       0.0573275      27.5224690
 H    6019         3.0786106       0.0000000       8.6790152
 C    6020        20.4838021       0.0924859      36.4518027
 N    6021        30.4717156       0.0572375      27.5352789
 H    6022         3.4542827       0.0000000       8.6776821
 H    6023         2.6385902       0.0000000       8.6802309
 N    6024        33.2166986       0.0577873      27.5427424
 H    6025         2.2690289       0.0000000       8.6763394
 H    6026         2.3289776       0.0000000       8.6767613
 C    6027        23.3181408       0.0950498      36.4971783
 O    6028        28.3547280       0.0402354      23.3368892
 N    6029        29.3770081       0.0558892      27.5205421
 H    6030         4.1538801       0.0000000       8.6777659
 C    6031        22.1715895       0.0921630      36.4504755
 H    6032         4.7141035       0.0000000       8.6727598
 C    6033        29.8005923       0.0931990      36.4706036
 H    6034         4.2670791       0.0000000       8.6825996
 H    6035         4.2720299       0.0000000       8.6749552
 C    6036        28.9218065       0.0908371      36.4529472
 C    6037        29.7916606       0.0937341      36.4644768
 H    6038         4.0515998       0.0000000       8.6801727
 C    6039        32.9520709       0.0969959      36.4754574
 H    6040         3.5231417       0.0000000       8.6792799
 C    6041        24.0891281       0.0940753      36.4635357
 O    6042        27.9072050       0.0385932      23.3215272
 H    6043         2.2864057       0.0000000       8.6748244
 C    6044        33.1789111       0.0922220      36.4797260
 H    6045         3.5688549       0.0000000       8.6769493
 C    6046        29.6008337       0.0974401      36.4919477
 H    6047         3.6781349       0.0000000       8.6736244
 C    6048        22.6440168       0.0903399      36.4415287
 O    6049        25.4669252       0.0408376      23.3430380
 N    6050        30.2280321       0.0567451      27.5154658
 H    6051         4.0453755       0.0000000       8.6778405
 C    6052        23.0815293       0.0947042      36.4699602
 H    6053         3.8182034       0.0000000       8.6756901
 C    6054        27.9179502       0.0939342      36.4713009
 H    6055         4.2845526       0.0000000       8.6780690
 H    6056         4.4848223       0.0000000       8.6774551
 C    6057        28.4354945       0.0919371      36.4597622
 H    6058         5.4625800       0.0000000       8.6672283
 H    6059         3.6036729       0.0000000       8.6756428
 C    6060        20.6703830       0.0927257      36.4635564
 O    6061        30.9921688       0.0345737      23.2796556
 N    6062        34.2883679       0.0538445      27.5176781
 H    6063         1.7430510       0.0000000       8.6731470
 H    6064         1.7288532       0.0000000       8.6773101
 C    6065        21.3069438       0.0929071      36.4799133
 O    6066        26.3571814       0.0376474      23.3388418
 N    6067        30.7726097       0.0568041      27.5326024
 H    6068         3.9435820       0.0000000       8.6769247
 C    6069        23.4769394       0.0968098      36.4772633
 H    6070         3.9482616       0.0000000       8.6776655
 C    6071        28.5339799       0.0973744      36.4762270
 H    6072         4.0430339       0.0000000       8.6776648
 H    6073         4.0586862       0.0000000       8.6820717
 C    6074        28.0937405       0.0956559      36.4794778
 C    6075        30.8909728       0.0920787      36.4574207
 H    6076         3.8216529       0.0000000       8.6824561
 C    6077        34.7050827       0.0928733      36.4644904
 H    6078         3.4024149       0.0000000       8.6801756
 C    6079        24.8082804       0.0937887      36.4751417
 O    6080        27.0756482       0.0380406      23.2700852
 H    6081         1.6216693       0.0000000       8.6750828
 C    6082        31.4690334       0.0970012      36.4685685
 H    6083         4.2506106       0.0000000       8.6740334
 C    6084        33.6232279       0.0952548      36.4545783
 H    6085         3.3002798       0.0000000       8.6751086
 C    6086        22.9074307       0.0985099      36.5023640
 O    6087        28.7751734       0.0395623      23.3120854
 N    6088        32.1554695       0.0580548      27.5239378
 H    6089         3.2752546       0.0000000       8.6752379
 C    6090        21.5207635       0.0948141      36.4963233
 H    6091         4.6107072       0.0000000       8.6820522
 C    6092        31.4326407       0.0946846      36.4678876
 H    6093         3.9876889       0.0000000       8.6822965
 H    6094         3.6296894       0.0000000       8.6814412
 C    6095        18.9242943       0.0936700      36.4499759
 O    6096        29.3459409       0.0399808      23.3477757
 N    6097        32.1181806       0.0571475      27.5429827
 H    6098         2.0076940       0.0000000       8.6757553
 H    6099         2.6369943       0.0000000       8.6780964
 C    6100        22.5487294       0.0920055      36.4447475
 O    6101        30.2388637       0.0384724      23.3528748
 N    6102        27.2850432       0.0595343      27.5514476
 H    6103         3.0718327       0.0000000       8.6747273
 C    6104        24.7610516       0.0985798      36.4716434
 H    6105         4.2907327       0.0000000       8.6738820
 H    6106         3.9347912       0.0000000       8.6838099
 H    6107         4.2869297       0.0000000       8.6783982
-------------------------------------------------------------

================================================

========================== Dipole Moment Calculation ===========================
                             Type:    Single Molecule
 
Electronic dipole moment (e.bohr):    dx =    -1566119.834916020511
                                      dy =    -1564239.416116252542
                                      dz =    -1563673.125991938636
               Magnitude (e.bohr):             2710101.461790406611
 
     Ionic dipole moment (e.bohr):    dx =     1565953.617478469852
                                      dy =     1564412.299611210590
                                      dz =     1563702.112501789117
               Magnitude (e.bohr):             2710121.929344010074
 
     Total dipole moment (e.bohr):    dx =        -166.217437550658
                                      dy =         172.883494958049
                                      dz =          28.986509850482
               Magnitude (e.bohr):                 241.572260676032
 
================================================================================

===================== Writing canonical molecular orbitals =====================
| Orbital  Energy (eV)  Norm     |
| HOMO-5   -3.84252077  1.000000 | Writing "ddec_HOMO-5.cube" ... done
| HOMO-4   -3.78962677  1.000000 | Writing "ddec_HOMO-4.cube" ... done
| HOMO-3   -3.69149864  1.000000 | Writing "ddec_HOMO-3.cube" ... done
| HOMO-2   -3.55965622  1.000000 | Writing "ddec_HOMO-2.cube" ... done
| HOMO-1   -3.53786552  1.000000 | Writing "ddec_HOMO-1.cube" ... done
| HOMO     -3.44260502  1.000000 | Writing "ddec_HOMO.cube" ... done
| LUMO     -2.71414931  1.000000 | Writing "ddec_LUMO.cube" ... done
| LUMO+1   -2.31588733  1.000000 | Writing "ddec_LUMO+1.cube" ... done
| LUMO+2   -2.27192270  1.000000 | Writing "ddec_LUMO+2.cube" ... done
| LUMO+3   -2.14929582  1.000000 | Writing "ddec_LUMO+3.cube" ... done
| LUMO+4   -2.10618080  1.000000 | Writing "ddec_LUMO+4.cube" ... done
| LUMO+5   -2.09620095  1.000000 | Writing "ddec_LUMO+5.cube" ... done
================================================================================
 
===================== Density of States (DOS) calculation ======================
Writing "ddec_DOS.txt" ...  done
================================================================================
 
Writing bands to file "ddec.val_bands" ... done

------------------------------ TIMING INFORMATION ------------------------------
AVERAGE TIME:   20370.657s on     88 node(s)                                    
TOTAL TIME:     20370.658s on     88 node(s)                                    
================= AVERAGE TIMINGS FROM ALL NODES (CUMULATIVE) ==================
|| TAG                                    #calls    cpu time   %total  Gflops ||
|| parallel_prepare_fd_halos_request    :     6        0.00s   0.000%  ------ ||
|| parallel_prepare_fd_halos_satisfy    :     6        0.00s   0.000%  ------ ||
|| work_imbalance                       :     1        0.00s   0.000%  ------ ||
|| parallel_prepare_fd_halos_alloc      :     6        0.01s   0.000%  ------ ||
|| sparse_set_to_garbage                :    10        0.01s   0.000%  ------ ||
|| parallel_prepare_fd_halos_comms_imbal:     6        0.03s   0.000%  ------ ||
|| basis_extract_function_from_box      :   346        0.09s   0.000%  ------ ||
|| parallel_prepare_fd_halos_clear      :     6        0.33s   0.002%  ------ ||
|| parallel_prepare_fd_halos_comms_wait :     6        0.49s   0.002%  ------ ||
|| pseudopotentials_nonlocal_mat        :     1        0.63s   0.003%  ------ ||
|| parallel_prepare_fd_halos            :     6        0.85s   0.004%  ------ ||
|| projectors_init_fftbox_recip         :     1        1.67s   0.008%  ------ ||
|| sparse_trace                         :     5        1.72s   0.008%  ------ ||
|| finite_difference_derivative         :     6        1.94s   0.010%  ------ ||
|| fourier_apply_cell_forward           :     5        4.04s   0.020%  47.727 ||
|| fourier_apply_cell_backward          :     7        4.95s   0.024%  54.564 ||
|| xc_energy_potential                  :     1        6.42s   0.032%  ------ ||
|| openbc_locps_radial                  :     1       12.77s   0.063%  ------ ||
|| fourier_apply_box_pair               :    87       13.07s   0.064% 152.931 ||
|| basis_copy_function_to_box           :  3638       19.34s   0.095%  ------ ||
|| kernel_purify                        :     1       19.41s   0.095%  ------ ||
|| function_ops_brappd_ketppd           :     2       24.41s   0.120%  ------ ||
|| projectors_func_ovlp_box             :     1       33.59s   0.165%  ------ ||
|| restart_ngwfs_tightbox_input         :     2       50.06s   0.246%  ------ ||
|| integrals_kinetic                    :     1       87.36s   0.429%  ------ ||
|| restart_kernel_read                  :     2       92.02s   0.452%  ------ ||
|| integrals_locpot_mat_els_batch       :    11       92.77s   0.455%  ------ ||
|| dense_eigensolve                     :     1      122.35s   0.601%  ------ ||
|| dl_mg_solver_calls                   :     1      148.11s   0.727%  ------ ||
|| density_fftbox_deposit_to_cell       :   696      155.69s   0.764%  ------ ||
|| basis_dot_function_with_box          : 615.4k     210.49s   1.033%  ------ ||
|| sparse_init                          :     1      234.17s   1.150%  ------ ||
|| basis_add_function_to_box            : 530.0k     236.44s   1.161%  ------ ||
|| sparse_hotelling_invert              :     1      289.29s   1.420%  ------ ||
|| multigrid_prepare_bound_cond         :     1      312.27s   1.533%  ------ ||
|| sparse_product                       :    43      323.46s   1.588%  ------ ||
|| potential_apply_to_ngwf_batch        :    11      341.92s   1.678%  ------ ||
|| density_batch_row_sums               :    44      390.59s   1.917%  ------ ||
|| integrals_locpot_dbl_grid            :     1      435.15s   2.136%  ------ ||
|| multigrid_calculate_hartree          :     1      462.66s   2.271%  ------ ||
|| pseudo_make_structure_factor         :     1      731.00s   3.588%  ------ ||
|| hamiltonian_lhxc_calculate           :     1      927.08s   4.551%  ------ ||
|| density_fftbox_interpolate_multiply  :   696     1170.71s   5.747%  ------ ||
|| optics_pos_mat_els                   :     1     1292.36s   6.344%  ------ ||
|| properties_polarisation              :     1     1293.39s   6.349%  ------ ||
|| density_batch_interp_deposit         :    44     1336.24s   6.560%  ------ ||
|| eigenstates_calculate                :     1     1362.84s   6.690%  ------ ||
|| openbc_locps_on_grid                 :     1     1525.80s   7.490%  ------ ||
|| fourier_apply_box                    :  2969     1626.81s   7.986% 201.510 ||
|| cell_grid_deposit_box_real           : 72583     1666.10s   8.179%  ------ ||
|| density_on_dbl_grid                  :     4     1784.49s   8.760%  ------ ||
|| cell_grid_extract_box_real           : 140.2k    4818.53s  23.654%  ------ ||
|| ddec_main                            :     1     7997.78s  39.261%  ------ ||
|| properties_calculate                 :     1    14579.68s  71.572%  ------ ||
|| total_time                           :     1    20370.66s 100.000%  ------ ||
================================================================================
Overhead of generating timer report: 
- 1 ms averaging over threads,
- 19 ms ensuring consistency across MPI ranks,
- 9 ms printing in order.

Job completed: 05-08-2019 15:21 (+0100)

