 +---------------------------------------------------------------+
 |                                                               |
 |        ####### #     # ####### ####### ####### ######         |
 |        #     # ##    # #          #    #       #     #        |
 |        #     # # #   # #          #    #       #     #        |
 |        #     # #  #  # #####      #    #####   ######         |
 |        #     # #   # # #          #    #       #              |
 |        #     # #    ## #          #    #       #              |
 |        ####### #     # #######    #    ####### #              |
 |                                                               |
 |        Linear-Scaling Ab Initio Total Energy Program          |
 |                                                               |
 |          Release for academic collaborators of ODG            |
 |                                             Version 4.5.14.11 |
 |                                                               |
 +---------------------------------------------------------------+
 |                                                               |
 |  Authors:                                                     |
 |  Jacek Dziedzic, Peter D. Haynes, Nicholas D. M. Hine,        |
 |  Arash. A. Mostofi, Mike C. Payne and Chris-Kriton Skylaris   |
 |                                                               |
 |  Contributors:                                                |
 |  J. Aarons, L. Andrinopoulos, P. W. Avraam, R. A. Bell,       |
 |  S. J. Clark, G. C. Constantinescu, F. Corsetti, N. Corsini,  |
 |  O. Dieguez, S. M. M. Dubois,  J. M. Escartin, A. Greco,      |
 |  H. H. Helal,  Q. O. Hill, L. P. Lee, J.-H. Li,               |
 |  E. B. Linscott, G. Moynihan, D. D. O`Regan, O. K. Okan,      |
 |  M. J. S. Phipps, C. J. Pickard, M. I. J. Probert,            |
 |  L. E. Ratcliff, M. Robinson, A. Ruiz Serrano, J. S. Spencer, |
 |  E. W. Tait, G. Teobaldi, D. Turban, V. Vitale,               |
 |  K. A. Wilkinson, C. Weber, J. C. Womack, N. Yeung,           |
 |  and T. J. Zuehlsdorff                                        |
 |                                                               |
 |                                   Copyright (c) 2004-2018     |
 |                                                               |
 |  Please cite:                                                 |
 |  "Introducing ONETEP: Linear-scaling density functional       |
 |   simulations on parallel computers".                         |
 |   C.-K. Skylaris, P. D. Haynes, A. A. Mostofi, M. C. Payne.   |
 |   J. Chem. Phys. 122 084119 (2005).                           |
 |                                                               |
 |          in all publications arising from your use of ONETEP. |
 |                                                               |
 +---------------------------------------------------------------+
 |                                                               |
 |   ONETEP is based on developments described in the following  |
 |   publications:                                               |
 |                                                               |
 |  "Nonorthogonal generalized Wannier function pseudopotential  |
 |   plane-wave method".                                         |
 |   C.-K. Skylaris, A. A. Mostofi, P. D. Haynes, O. Dieguez,    |
 |   M. C. Payne.                                                |
 |   Phys. Rev. B 66 035119 (2002).                              |
 |                                                               |
 |  "Preconditioned iterative minimization for linear-scaling    |
 |   electronic structure calculations".                         |
 |   A. A. Mostofi, P. D. Haynes, C.-K. Skylaris, M. C. Payne.   |
 |   J. Chem. Phys. 119(17), pp.8842-8848 (2003).                |
 |                                                               |
 |  "Total-energy calculations on a real space grid with         |
 |   localized functions and a plane-wave basis".                |
 |   A. A. Mostofi, C.-K. Skylaris, P. D. Haynes, M. C. Payne.   |
 |   Comput. Phys. Commun. 147, pp.788-802 (2002).               |
 |                                                               |
 |  "Accurate kinetic energy evaluation in electronic structure  |
 |   calculations with localized functions on real space grids"  |
 |   C.-K. Skylaris, A. A. Mostofi, P. D. Haynes, C. J. Pickard, |
 |   M. C. Payne.                                                |
 |   Comput. Phys. Commun. 140, pp.315-322 (2001).               |
 |                                                               |
 |  "Accurate ionic forces and geometry optimization in linear-  |
 |   scaling density-functional theory with local orbitals"      |
 |   N. D. M. Hine, M. Robinson, P. D. Haynes, C.-K. Skylaris,   |
 |   M. C. Payne, and A. A. Mostofi.                             |
 |   Phys. Rev. B 83 195102 (2011).                              |
 |                                                               |
 +---------------------------------------------------------------+

Job started: 08-04-2020 21:20 (+0100)
 
Reading parameters from file "ddec.dat" ...

WARNING: "cutoff_energy" not specified, but "psinc_spacing" specified.
         Using the latter to set the KE cutoff energy to  976.87496eV,
         thus *overriding* the default.

... done

If your calculation crashes here, before "Checking processes and threads..."
is displayed, then your stack size is insufficient.
If so, use "ulimit -s unlimited" at runtime.
You can disable this check with "check_stack_size F".

Checking processes and threads...
   Determining the default number of threads...
      No default threads set at compilation time: defaulting to 1.
      OpenMP library call suggests 1 threads.
      Hybrid MPI-OpenMP compilation detected.
      Number of MPI processes > 1.
      OMP_NUM_THREADS environment variable present and
      its value matches the one obtained from the OpenMP library call.
      Using this value as default.
      Default threads: 1
      Default applies to threads_max and threads_num_fftboxes.
      Settings in the input file override this default.
   ... done

   Running with 88 MPI processes.
   There are 44 MPI processes running on the same node as the root process.
   Each MPI process is using: 
               1 threads for simulation cell FFTs.
               1 threads for parallel FFT box operations.
               1 threads for loops over batched FFT box operations.
               1 threads in other parallel regions.
... done

Basic input checks...... done

Reading geometry and species blocks from file "ddec.dat" ...
  <species_atomic_set> block not found: NGWF initialisation set to SOLVE
IS: Dielectric excluded regions:
    - NONE.
    
  PSINC grid spacing along a1 set to   0.460000000000a0 from input file.
  PSINC grid spacing along a2 set to   0.460000000000a0 from input file.
  PSINC grid spacing along a3 set to   0.460000000000a0 from input file.
  Number of PPD points along a3 set to1.  This is 
  the default value, it may have been provided also in the input file.
... done
 Writing xyz coordinates to file "ddec.xyz" ... done


--------------------------------------------------------------------------------
---------------------------------- INPUT FILE ----------------------------------
--------------------------------------------------------------------------------

task          : properties                                                      
xc_functional : PBE                                                             
charge        : 0.0                                                             
minit_lnv             : 8                                                       
maxit_lnv             : 8                                                       
lnv_check_trial_steps : T                                                       
maxit_pen              : 0                                                      
maxit_palser_mano      : -1                                                     
initial_dens_realspace : T                                                      
maxit_hotelling        : 100                                                    
ngwf_threshold_orig  : 1.0e-6                                                   
maxit_ngwf_cg        : 50                                                       
delta_e_conv         : T                                                        
elec_energy_tol      : 2.54976e-09 hartree                                      
is_implicit_solvent T                                                           
is_include_apolar F                                                             
is_separate_restart_files T                                                     
is_solvation_beta 1.3                                                           
is_density_threshold 0.00035                                                    
is_bulk_permittivity 10.00                                                      
is_smeared_ion_rep T                                                            
is_smeared_ion_width 0.8                                                        
is_dielectric_model fix_initial                                                 
is_solvent_surf_tension 0.07415 N/m                                             
is_apolar_scaling_factor 0.281075                                               
output_detail        : VERBOSE                                                  
cube_format          : T                                                        
grd_format           : F                                                        
check_atoms          : T                                                        
do_properties        : T                                                        
write_forces         : F                                                        
write_xyz            : T                                                        
num_eigenvalues      : -1                                                       
polarisation_calculate : T                                                      
write_denskern       : T                                                        
write_tightbox_ngwfs : T                                                        
read_denskern        : T                                                        
read_tightbox_ngwfs  : T                                                        
psinc_spacing 0.460 0.460 0.460                                                 
%block lattice_cart                                                             
186.300000000   0.000000000   0.000000000                                       
0.000000000   186.300000000   0.000000000                                       
0.000000000   0.000000000   186.300000000                                       
%endblock lattice_cart                                                          
%block species                                                                  
H   H   1 1 10.0                                                                
C   C   6 4 10.0                                                                
N   N   7 4 10.0                                                                
O   O   8 4 10.0                                                                
S   S  16 4 10.0                                                                
%endblock species                                                               
%block species_pot                                                              
H   "/nobackup/proj/dccadd/recpots/opium/h-optgga1.recpot"                      
C   "/nobackup/proj/dccadd/recpots/opium/c-optgga1.recpot"                      
N   "/nobackup/proj/dccadd/recpots/opium/n-optgga1.recpot"                      
O   "/nobackup/proj/dccadd/recpots/opium/o-optgga1.recpot"                      
S   "/nobackup/proj/dccadd/recpots/opium2/s-optgga1.recpot"                     
%endblock species_pot                                                           
ddec_calculate       : T                                                        
ddec_multipole       : T                                                        
ddec_moment          : 3                                                        
ddec_classical_hirshfeld : F                                                    
ddec_maxit           : 1000                                                     
ddec_IH_fraction     : 0.02                                                     
ddec_write_rad : T                                                              
ddec_rad_npts  : 100                                                            
ddec_rad_rcut  : 5 ang                                                          
ddec_reshape_dens    : T                                                        
ddec_use_coredens    : T                                                        
ddec_c3_refdens      : T                                                        
ddec_core_correction : T                                                        
ddec_format_dens     : T                                                        
%block ddec_rcomp                                                               
H ALL  "/nobackup/proj/dccadd/ddec_atomic_densities/H_c2.refconf"               
C ALL  "/nobackup/proj/dccadd/ddec_atomic_densities/C_c2.refconf"               
C CORE "/nobackup/proj/dccadd/ddec_atomic_densities/C_c2.coreconf"              
N ALL  "/nobackup/proj/dccadd/ddec_atomic_densities/N_c2.refconf"               
N CORE "/nobackup/proj/dccadd/ddec_atomic_densities/N_c2.coreconf"              
O ALL  "/nobackup/proj/dccadd/ddec_atomic_densities/O_c2.refconf"               
O CORE "/nobackup/proj/dccadd/ddec_atomic_densities/O_c2.coreconf"              
S ALL  "/nobackup/proj/dccadd/ddec_atomic_densities/S_c2.refconf"               
S CORE "/nobackup/proj/dccadd/ddec_atomic_densities/S_c2.coreconf"              
%endblock ddec_rcomp                                                            
%block positions_abs                                                            
     Hash =  -000003856515033316739101
%endblock positions_abs                                                         

--------------------------------------------------------------------------------
-------------------------------- END INPUT FILE --------------------------------
--------------------------------------------------------------------------------


 
 ESDF WARNING(1
 ): "issmearedionwidth" (esdf_physical) has no units. Assume "bohr".
<<<<<<<<<<<<<<<<<<<<<<<<< Pseudopotential information >>>>>>>>>>>>>>>>>>>>>>>>>>
File: /nobackup/proj/dccadd/recpots/opium/h-optgga1.recpot [ 2001 points up to Gmax=  52.9 (1/bohr)]
  Atomic number:  1;  ionic charge:  1.000000
    Local potential
File: /nobackup/proj/dccadd/recpots/opium/c-optgga1.recpot [ 2001 points up to Gmax=  52.9 (1/bohr)]
  Atomic number:  6;  ionic charge:  4.000000
    Shell 1: l = 1; rc = 1.31 bohr
File: /nobackup/proj/dccadd/recpots/opium/o-optgga1.recpot [ 2001 points up to Gmax=  52.9 (1/bohr)]
  Atomic number:  8;  ionic charge:  6.000000
    Shell 1: l = 1; rc = 1.54 bohr
File: /nobackup/proj/dccadd/recpots/opium/n-optgga1.recpot [ 2001 points up to Gmax=  52.9 (1/bohr)]
  Atomic number:  7;  ionic charge:  5.000000
    Shell 1: l = 1; rc = 1.54 bohr
File: /nobackup/proj/dccadd/recpots/opium2/s-optgga1.recpot [ 2001 points up to Gmax=  52.9 (1/bohr)]
  Atomic number: 16;  ionic charge:  6.000000
    Shell 1: l = 1; rc = 1.37 bohr
    Shell 2: l = 2; rc = 1.31 bohr
<<<<<<<<<<<<<<<<<<<<<<<<<<<<<<<<<<<<<<<<>>>>>>>>>>>>>>>>>>>>>>>>>>>>>>>>>>>>>>>>

-------------------------- Atom counting information ---------------------------
Symbol    Natoms    Nngwfs    Nprojs
  H       3132      3132         0
  C       2028      8112      6084
  O        569      2276      1707
  N        514      2056      1542
  S          7        28        56
.......   ......    ......    ......
Totals:   6250     15604      9389
--------------------------------------------------------------------------------

=============================== PSINC grid sizes ===============================
                      Simulation cell:  405 x 405 x 405
                              FFT-box:  135 x 135 x 135
                                  PPD:    5 x   5 x   1
Grid space d1=  0.460000000000a0 (KE cutoff=  35.89949Eh = 976.87496eV)
Grid space d2=  0.460000000000a0 (KE cutoff=  35.89949Eh = 976.87496eV)
Grid space d3=  0.460000000000a0 (KE cutoff=  35.89949Eh = 976.87496eV)
================================================================================

********************* Fourier parallelisation information **********************
       Coarse grid (whole simulation cell) dimensions:    405   405   405
          Real-space ('12') slabs/node (min max mean):      4     5     4
         Recip-space ('23') slabs/node (min max mean):      2     3     2
********************************************************************************

********************* Fourier parallelisation information **********************
       Double grid (whole simulation cell) dimensions:    810   810   810
          Real-space ('12') slabs/node (min max mean):      9    10     9
         Recip-space ('23') slabs/node (min max mean):      4     5     4
********************************************************************************
ONETEP fine grid is 810 x 810 x 810 gridpoints, 186.3000 x 186.3000 x 186.3000 bohr.
FD multigrid is     809 x 809 x 809 gridpoints, 186.0700 x 186.0700 x 186.0700 bohr.


Calculating local pseudopotential in open BC on a radial grid ...
Discrepancy between calculated realspace psloc and -Z/x on [5a0,322.681a0]:
max |rel. diff| # avg |rel. diff| #  avg rel. diff #  f # pseudopotential file
 0.002534160520    0.000098814145  -0.000000293232   68  '/nobackup/proj/dccadd/recpots/opium/h-optgga1.recpot'
 0.000347284524    0.000005030034   0.000000340181   68  '/nobackup/proj/dccadd/recpots/opium/c-optgga1.recpot'
 0.000200089092    0.000005499034   0.000000094973   68  '/nobackup/proj/dccadd/recpots/opium/o-optgga1.recpot'
 0.000201164940    0.000004807044   0.000000148837   68  '/nobackup/proj/dccadd/recpots/opium/n-optgga1.recpot'
 0.001493557066    0.000061463391   0.000000834761   68  '/nobackup/proj/dccadd/recpots/opium2/s-optgga1.recpot'
... done

Atom SCF Calculation for H  : Z (AE atom) =   1 : Z (PS atom) =   1
Config String:
Orbitals (num,occ):  1     1.00
Orbitals   (num,l):  1        0
Real-space Grid (nr,dr,rmax): 1661    0.0060240964   10.0000000000
Spherical Bessel Basis (nsws,lmax,cutoff):   37    0  215.3969693925
Confining potential (l,width,scale):  0    3.0000000000  100.0000000000
  1         -0.3256955148   -0.2402866937    0.2820952183   -0.2424203211
  2         -0.3990272352   -0.2404235125    0.2866827953   -0.2460551820
  3         -0.4337531895   -0.2388945872    0.2890202227   -0.2491385842
  4         -0.4485272524   -0.2382477949    0.2898498012   -0.2505233888
  5         -0.4544930012   -0.2380694006    0.2900584791   -0.2510361457
  6         -0.4568927000   -0.2380365831    0.2900887846   -0.2512159823
  7         -0.4578698625   -0.2380374348    0.2900820889   -0.2512789811
  8         -0.4582738151   -0.2380424781    0.2900731193   -0.2513015489
  9         -0.4584430101   -0.2380460638    0.2900674306   -0.2513098901
 10         -0.4585145884   -0.2380480335    0.2900644340   -0.2513130724
 11         -0.4585450863   -0.2380490116    0.2900629774   -0.2513143207
 12         -0.4585581448   -0.2380494735    0.2900622981   -0.2513148214
 13         -0.4585637550   -0.2380496858    0.2900619886   -0.2513150255
 14         -0.4585661708   -0.2380497817    0.2900618496   -0.2513151097
 15         -0.4585672127   -0.2380498246    0.2900617876   -0.2513151447
 16         -0.4585676626   -0.2380498437    0.2900617602   -0.2513151594
 17         -0.4585678570   -0.2380498521    0.2900617481   -0.2513151656
 18         -0.4585679411   -0.2380498558    0.2900617428   -0.2513151682
Atom SCF converged after  18 iterations to a total energy of     -0.45856794

Atom SCF Calculation for C  : Z (AE atom) =   6 : Z (PS atom) =   4
Config String:
Orbitals (num,occ):  2     2.00 2.00
Orbitals   (num,l):  2        0    1
Real-space Grid (nr,dr,rmax): 1661    0.0060240964   10.0000000000
Spherical Bessel Basis (nsws,lmax,cutoff):   37    1  215.3969693925
Confining potential (l,width,scale):  0    3.0000000000  100.0000000000
Confining potential (l,width,scale):  1    3.0000000000  100.0000000000
  1         -5.1306023999   -1.2624456896    4.5135234932   -1.4493313820
  2         -5.2256113755   -1.3695243032    4.3992783633   -1.4155746258
  3         -5.2973814932   -1.3864545587    4.3818006235   -1.4130534193
  4         -5.3319956318   -1.3901258005    4.3779514357   -1.4136698525
  5         -5.3459927845   -1.3920800209    4.3758177771   -1.4138767617
  6         -5.3518263551   -1.3929432102    4.3748683258   -1.4139622423
  7         -5.3542724608   -1.3933086715    4.3744655036   -1.4139985542
  8         -5.3552999871   -1.3934613551    4.3742970194   -1.4140139995
  9         -5.3557318244   -1.3935249713    4.3742267567   -1.4140205220
 10         -5.3559133804   -1.3935514693    4.3741974663   -1.4140232649
 11         -5.3559897374   -1.3935625135    4.3741852487   -1.4140244152
 12         -5.3560218612   -1.3935671212    4.3741801477   -1.4140248967
 13         -5.3560353801   -1.3935690456    4.3741780155   -1.4140250979
 14         -5.3560410711   -1.3935698503    4.3741771233   -1.4140251818
 15         -5.3560434675   -1.3935701872    4.3741767495   -1.4140252168
 16         -5.3560444770   -1.3935703284    4.3741765927   -1.4140252313
 17         -5.3560449023   -1.3935703876    4.3741765269   -1.4140252373
 18         -5.3560450815   -1.3935704125    4.3741764992   -1.4140252399
 19         -5.3560451571   -1.3935704229    4.3741764875   -1.4140252409
Atom SCF converged after  19 iterations to a total energy of     -5.35604516

Atom SCF Calculation for N  : Z (AE atom) =   7 : Z (PS atom) =   5
Config String:
Orbitals (num,occ):  2     2.00 3.00
Orbitals   (num,l):  2        0    1
Real-space Grid (nr,dr,rmax): 1661    0.0060240964   10.0000000000
Spherical Bessel Basis (nsws,lmax,cutoff):   37    1  215.3969693925
Confining potential (l,width,scale):  0    3.0000000000  100.0000000000
Confining potential (l,width,scale):  1    3.0000000000  100.0000000000
  1         -7.6223622581   -3.2885691777    7.0523804581   -1.9351020948
  2         -9.5668108351   -2.0605065103    8.1960281545   -2.2278404424
  3         -9.5636069845   -2.1269538289    8.1249747640   -2.2151674288
  4         -9.5870473231   -2.1362204290    8.1150828249   -2.2155843943
  5         -9.5934768911   -2.1401448997    8.1108643465   -2.2155578260
  6         -9.5972039823   -2.1420042213    8.1088643775   -2.2156237704
  7         -9.5992438495   -2.1429484070    8.1078482854   -2.2156766615
  8         -9.6003507282   -2.1434339236    8.1073257382   -2.2157113655
  9         -9.6009503457   -2.1436842820    8.1070563265   -2.2157327988
 10         -9.6012749683   -2.1438135283    8.1069172880   -2.2157456420
 11         -9.6014506319   -2.1438803105    8.1068454760   -2.2157531932
 12         -9.6015456476   -2.1439148475    8.1068083554   -2.2157575739
 13         -9.6015970198   -2.1439327248    8.1067891506   -2.2157600897
 14         -9.6016247842   -2.1439419872    8.1067792057   -2.2157615229
 15         -9.6016397843   -2.1439467906    8.1067740511   -2.2157623341
 16         -9.6016478855   -2.1439492841    8.1067713769   -2.2157627908
 17         -9.6016522595   -2.1439505797    8.1067699881   -2.2157630466
 18         -9.6016546204   -2.1439512535    8.1067692662   -2.2157631895
 19         -9.6016558944   -2.1439516043    8.1067688906   -2.2157632689
 20         -9.6016565818   -2.1439517871    8.1067686950   -2.2157633129
 21         -9.6016569526   -2.1439518825    8.1067685930   -2.2157633373
 22         -9.6016571525   -2.1439519323    8.1067685398   -2.2157633508
 23         -9.6016572604   -2.1439519583    8.1067685120   -2.2157633582
 24         -9.6016573185   -2.1439519719    8.1067684975   -2.2157633623
Atom SCF converged after  24 iterations to a total energy of     -9.60165732

Atom SCF Calculation for O  : Z (AE atom) =   8 : Z (PS atom) =   6
Config String:
Orbitals (num,occ):  2     2.00 4.00
Orbitals   (num,l):  2        0    1
Real-space Grid (nr,dr,rmax): 1661    0.0060240964   10.0000000000
Spherical Bessel Basis (nsws,lmax,cutoff):   37    1  215.3969693925
Confining potential (l,width,scale):  0    3.0000000000  100.0000000000
Confining potential (l,width,scale):  1    3.0000000000  100.0000000000
  1         -9.8878403530   -7.1216105765   10.1554278596   -2.4512393158
  2        -15.3598965651   -3.1716235949   13.3430027841   -3.1729163852
  3        -15.5584285686   -3.0704835348   13.4529289200   -3.2054549208
  4        -15.5554334791   -3.0889801398   13.4337796921   -3.2050176230
  5        -15.5723165501   -3.0842591806   13.4391262937   -3.2079953676
  6        -15.5747216053   -3.0850254099   13.4383969583   -3.2084278823
  7        -15.5765163854   -3.0850984375   13.4383674730   -3.2087427095
  8        -15.5774728101   -3.0851491416   13.4383388713   -3.2089079913
  9        -15.5779755777   -3.0851867628   13.4383121424   -3.2089934642
 10        -15.5782398212   -3.0852122038   13.4382920589   -3.2090376253
 11        -15.5783787746   -3.0852284395   13.4382784570   -3.2090604503
 12        -15.5784518856   -3.0852384187   13.4382697721   -3.2090722561
 13        -15.5784903751   -3.0852443938   13.4382644326   -3.2090783678
 14        -15.5785106495   -3.0852479033   13.4382612351   -3.2090815350
 15        -15.5785213350   -3.0852499346   13.4382593569   -3.2090831778
 16        -15.5785269696   -3.0852510967   13.4382582698   -3.2090840310
 17        -15.5785299424   -3.0852517555   13.4382576478   -3.2090844744
 18        -15.5785315116   -3.0852521261   13.4382572953   -3.2090847052
 19        -15.5785323404   -3.0852523332   13.4382570969   -3.2090848254
 20        -15.5785327782   -3.0852524484   13.4382569861   -3.2090848880
 21        -15.5785330097   -3.0852525121   13.4382569244   -3.2090849207
 22        -15.5785331321   -3.0852525472   13.4382568903   -3.2090849378
 23        -15.5785331968   -3.0852525665   13.4382568715   -3.2090849467
Atom SCF converged after  23 iterations to a total energy of    -15.57853320

Atom SCF Calculation for S  : Z (AE atom) =  16 : Z (PS atom) =   6
Config String:
Orbitals (num,occ):  2     2.00 4.00
Orbitals   (num,l):  2        0    1
Real-space Grid (nr,dr,rmax): 1661    0.0060240964   10.0000000000
Spherical Bessel Basis (nsws,lmax,cutoff):   37    2  215.3969693925
Confining potential (l,width,scale):  0    3.0000000000  100.0000000000
Confining potential (l,width,scale):  1    3.0000000000  100.0000000000
  1         -9.5204580254   -0.9967078168   10.1554278596   -2.4512393158
  2         -8.7418084162   -2.6490306889    7.9906169987   -1.9609993362
  3         -9.6374030575   -2.3437919340    8.3157264185   -2.0528630487
  4         -9.8365808328   -2.3147429995    8.3499774543   -2.0680606815
  5         -9.9418361816   -2.2995037556    8.3678255173   -2.0768614721
  6         -9.9969970209   -2.2921412618    8.3763445659   -2.0814967383
  7        -10.0257623946   -2.2887420035    8.3802987571   -2.0838413296
  8        -10.0408186759   -2.2871321286    8.3821893827   -2.0850343047
  9        -10.0487264783   -2.2863478395    8.3831168082   -2.0856470457
 10        -10.0528854808   -2.2859620893    8.3835753210   -2.0859628060
 11        -10.0550742327   -2.2857723251    8.3838019567   -2.0861256430
 12        -10.0562267453   -2.2856792255    8.3839137022   -2.0862096414
 13        -10.0568339962   -2.2856337105    8.3839686347   -2.0862529892
 14        -10.0571541757   -2.2856115462    8.3839955517   -2.0862753722
 15        -10.0573231185   -2.2856008004    8.3840086947   -2.0862869381
 16        -10.0574123289   -2.2855956170    8.3840150866   -2.0862929193
 17        -10.0574594729   -2.2855931314    8.3840181811   -2.0862960150
 18        -10.0574844056   -2.2855919480    8.3840196711   -2.0862976188
 19        -10.0574976018   -2.2855913893    8.3840203841   -2.0862984503
 20        -10.0575045915   -2.2855911284    8.3840207227   -2.0862988818
 21        -10.0575082966   -2.2855910082    8.3840208819   -2.0862991060
 22        -10.0575102620   -2.2855909537    8.3840209560   -2.0862992226
 23        -10.0575113055   -2.2855909296    8.3840209899   -2.0862992833
 24        -10.0575118598   -2.2855909193    8.3840210051   -2.0862993149
 25        -10.0575121545   -2.2855909151    8.3840210118   -2.0862993313
 26        -10.0575123113   -2.2855909135    8.3840210146   -2.0862993399
 27        -10.0575123947   -2.2855909131    8.3840210157   -2.0862993444
Atom SCF converged after  27 iterations to a total energy of    -10.05751239

Determining parallel strategy ...
... using space-filling curve
... NGWF load balancing: max    178;  min    177;  average    177
... Projector load balancing: max    118;  min    105;  average    107
... done
Calculating direct Ion-Ion energy ...
Ion-Ion Energy        :   3299413.07769496738911
Basis initialisation ...... NGWF spheres initialised
... Projector spheres initialised
... NGWF tight boxes initialised
... Tight-boxes gathered
... NGWF basis size (local,global):    4525535 398901668
... Nonlocal pseudopotential projector initialisation
... done

========================== Sparse matrix information ===========================
                        Overlap matrix filling:   5.00%
                        Density kernel filling: 100.00%
              NGWF-Proj overlap matrix filling:   1.20%
                    Hamiltonian matrix filling:   5.48%
                  NGWF diagonal matrix filling:   0.02%
                             KS matrix filling: 100.00% 
                           KSKS matrix filling: 100.00% 
================================================================================

Sparse matrix initialisation ... done

Generating smeared ion density ... done
Smeared ion self correction:     -34491.552208
Smeared ion non-self correction: -3299301.610637

Reading NGWFs for initialising the solvent cavity from file "ddec.vacuum_tightbox_ngwfs" ...
 Attempting to read old tightbox format file.
  done

Reading density kernel for initialising the solvent cavity from file "ddec.vacuum_dkn" ... done

Generating solute cavity for implicit solvation ... done

Reading NGWFs from file "ddec.tightbox_ngwfs" ...
 Attempting to read old tightbox format file.
  done
============ Calculation of NGWF S^-1 using Hotelling algorithm ================ 
         Iteration  |  Frobenius norm and Maximum abs value    (of I-S*S_n^-1)   
               1       0.12252441E+03     0.98806319E+00
               2       0.12042290E+03     0.97634797E+00
               3       0.11688470E+03     0.95354797E+00
               4       0.11155746E+03     0.91026463E+00
               5       0.10444622E+03     0.83170336E+00
               6       0.95806831E+02     0.73427505E+00
               7       0.86249655E+02     0.68873487E+00
               8       0.76936485E+02     0.65306974E+00
               9       0.67967713E+02     0.60598285E+00
              10       0.56887710E+02     0.53180275E+00
              11       0.41920956E+02     0.43899755E+00
              12       0.24887916E+02     0.31165518E+00
              13       0.10648276E+02     0.17309242E+00
              14       0.27535833E+01     0.74982419E-01
              15       0.30244052E+00     0.15460022E-01
              16       0.67248237E-02     0.68219413E-03
              17       0.63248453E-05     0.13414831E-05
              18       0.15532118E-10     0.51917359E-11
              19       0.96482536E-13     0.33306691E-14
================================================================================
Calculating local pseudopotential in open BC on the fine real space grid ...
... done


Reading density kernel from file "ddec.dkn" ... done

Reusing previously generated solute cavity.
MG BCs: +ve charge blocks (gridpoints):    534393 (   59848813).
MG BCs: -ve charge blocks (gridpoints):     90477 (    3146086).
MG BCs:     Elided blocks (gridpoints):   3716473 (  466480230).
MG BCs: Computational effort saved:  99.8820%.
MG BCs: Charge after coarse-graining:           -0.0032954.
MG DL_MG: Calling solver with defect correction order = 8
MG DL_MG: Solver finished
MG Hartree energy from (\int phi*rho dr):              3099.764054
MG Hartree energy from (\int eps (grad phi)^2 dr):     3099.542721
MG Discrepancy due to finite box and discretization:     -0.221333 (  -0.00714%)
MG Correction to account for finite box:                  0.004108
MG Remaining discrepancy, due to discretization:         -0.217225 (  -0.00701%)

======================== Writing density and potential =========================
Writing "ddec_density.cube" ... done
Writing "ddec_potential.cube" ... done
WARNING: The pure electrostatic potential (Coulomb ions+electrons) will not
         be output: calculation is not in vacuum.
================================================================================

    Mulliken Atomic Populations
    ---------------------------
Species  Ion    Total   Charge (e)
==================================
  H      1       0.680      0.320
  C      2       4.875     -0.875
  H      3       0.711      0.289
  H      4       0.698      0.302
  C      5       3.455      0.545
  O      6       6.620     -0.620
  N      7       5.589     -0.589
  H      8       0.547      0.453
  C      9       4.180     -0.180
  H     10       0.671      0.329
  C     11       4.515     -0.515
  H     12       0.733      0.267
  H     13       0.700      0.300
  C     14       4.559     -0.559
  H     15       0.717      0.283
  H     16       0.729      0.271
  C     17       3.440      0.560
  O     18       6.658     -0.658
  N     19       5.832     -0.832
  H     20       0.557      0.443
  H     21       0.556      0.444
  C     22       3.467      0.533
  O     23       6.634     -0.634
  N     24       5.558     -0.558
  H     25       0.537      0.463
  C     26       4.121     -0.121
  H     27       0.753      0.247
  C     28       4.596     -0.596
  H     29       0.733      0.267
  H     30       0.705      0.295
  C     31       3.334      0.666
  O     32       6.695     -0.695
  O     33       6.711     -0.711
  C     34       3.464      0.536
  O     35       6.623     -0.623
  N     36       5.552     -0.552
  H     37       0.549      0.451
  C     38       4.174     -0.174
  H     39       0.674      0.326
  C     40       4.514     -0.514
  H     41       0.723      0.277
  H     42       0.712      0.288
  C     43       3.996      0.004
  C     44       4.257     -0.257
  H     45       0.764      0.236
  C     46       4.279     -0.279
  H     47       0.731      0.269
  C     48       4.287     -0.287
  H     49       0.723      0.277
  C     50       4.278     -0.278
  H     51       0.719      0.281
  C     52       4.253     -0.253
  H     53       0.745      0.255
  C     54       3.454      0.546
  O     55       6.638     -0.638
  N     56       5.543     -0.543
  H     57       0.563      0.437
  C     58       4.147     -0.147
  H     59       0.737      0.263
  C     60       4.534     -0.534
  H     61       0.700      0.300
  H     62       0.736      0.264
  C     63       4.031     -0.031
  C     64       4.168     -0.168
  H     65       0.738      0.262
  N     66       5.554     -0.554
  H     67       0.545      0.455
  C     68       3.866      0.134
  C     69       4.306     -0.306
  H     70       0.763      0.237
  C     71       4.257     -0.257
  H     72       0.736      0.264
  C     73       4.288     -0.288
  H     74       0.711      0.289
  C     75       4.288     -0.288
  H     76       0.735      0.265
  C     77       4.028     -0.028
  C     78       3.433      0.567
  O     79       6.642     -0.642
  N     80       5.509     -0.509
  H     81       0.593      0.407
  C     82       4.155     -0.155
  H     83       0.708      0.292
  C     84       4.519     -0.519
  H     85       0.748      0.252
  H     86       0.715      0.285
  C     87       4.594     -0.594
  H     88       0.753      0.247
  H     89       0.733      0.267
  C     90       3.329      0.671
  O     91       6.758     -0.758
  O     92       6.784     -0.784
  C     93       3.446      0.554
  O     94       6.609     -0.609
  N     95       5.542     -0.542
  H     96       0.583      0.417
  C     97       4.168     -0.168
  H     98       0.684      0.316
  C     99       4.252     -0.252
  H    100       0.724      0.276
  C    101       4.720     -0.720
  H    102       0.754      0.246
  H    103       0.768      0.232
  H    104       0.748      0.252
  C    105       4.731     -0.731
  H    106       0.781      0.219
  H    107       0.719      0.281
  H    108       0.773      0.227
  C    109       3.466      0.534
  O    110       6.588     -0.588
  N    111       5.519     -0.519
  H    112       0.592      0.408
  C    113       4.155     -0.155
  H    114       0.712      0.288
  C    115       4.511     -0.511
  H    116       0.707      0.293
  H    117       0.728      0.272
  C    118       4.551     -0.551
  H    119       0.760      0.240
  H    120       0.724      0.276
  C    121       3.433      0.567
  O    122       6.605     -0.605
  N    123       5.851     -0.851
  H    124       0.571      0.429
  H    125       0.530      0.470
  C    126       3.448      0.552
  O    127       6.617     -0.617
  N    128       5.578     -0.578
  H    129       0.563      0.437
  C    130       4.155     -0.155
  H    131       0.681      0.319
  C    132       4.509     -0.509
  H    133       0.754      0.246
  H    134       0.723      0.277
  C    135       4.241     -0.241
  H    136       0.731      0.269
  C    137       4.794     -0.794
  H    138       0.744      0.256
  H    139       0.729      0.271
  H    140       0.741      0.259
  C    141       4.765     -0.765
  H    142       0.750      0.250
  H    143       0.722      0.278
  H    144       0.745      0.255
  C    145       3.439      0.561
  O    146       6.632     -0.632
  N    147       5.549     -0.549
  H    148       0.577      0.423
  C    149       4.474     -0.474
  H    150       0.652      0.348
  H    151       0.691      0.309
  C    152       3.475      0.525
  O    153       6.617     -0.617
  N    154       5.542     -0.542
  H    155       0.546      0.454
  C    156       4.153     -0.153
  H    157       0.708      0.292
  C    158       4.207     -0.207
  H    159       0.758      0.242
  C    160       4.718     -0.718
  H    161       0.761      0.239
  H    162       0.757      0.243
  H    163       0.759      0.241
  C    164       4.486     -0.486
  H    165       0.777      0.223
  H    166       0.721      0.279
  C    167       4.715     -0.715
  H    168       0.776      0.224
  H    169       0.766      0.234
  H    170       0.742      0.258
  C    171       3.472      0.528
  O    172       6.640     -0.640
  N    173       5.291     -0.291
  C    174       4.381     -0.381
  H    175       0.759      0.241
  H    176       0.697      0.303
  C    177       4.490     -0.490
  H    178       0.741      0.259
  H    179       0.718      0.282
  C    180       4.488     -0.488
  H    181       0.752      0.248
  H    182       0.706      0.294
  C    183       4.157     -0.157
  H    184       0.696      0.304
  C    185       3.453      0.547
  O    186       6.637     -0.637
  N    187       5.539     -0.539
  H    188       0.577      0.423
  C    189       4.125     -0.125
  H    190       0.719      0.281
  C    191       4.534     -0.534
  H    192       0.696      0.304
  H    193       0.714      0.286
  C    194       3.910      0.090
  N    195       5.492     -0.492
  C    196       3.963      0.037
  H    197       0.723      0.277
  N    198       5.511     -0.511
  H    199       0.555      0.445
  C    200       4.194     -0.194
  H    201       0.699      0.301
  C    202       3.470      0.530
  O    203       6.619     -0.619
  N    204       5.299     -0.299
  C    205       4.371     -0.371
  H    206       0.721      0.279
  H    207       0.714      0.286
  C    208       4.478     -0.478
  H    209       0.718      0.282
  H    210       0.754      0.246
  C    211       4.466     -0.466
  H    212       0.723      0.277
  H    213       0.740      0.260
  C    214       4.149     -0.149
  H    215       0.712      0.288
  C    216       3.467      0.533
  O    217       6.613     -0.613
  N    218       5.550     -0.550
  H    219       0.571      0.429
  C    220       4.166     -0.166
  H    221       0.670      0.330
  C    222       4.689     -0.689
  H    223       0.739      0.261
  H    224       0.783      0.217
  H    225       0.761      0.239
  C    226       3.459      0.541
  O    227       6.624     -0.624
  N    228       5.544     -0.544
  H    229       0.576      0.424
  C    230       4.388     -0.388
  H    231       0.726      0.274
  H    232       0.680      0.320
  C    233       3.444      0.556
  O    234       6.651     -0.651
  N    235       5.527     -0.527
  H    236       0.565      0.435
  C    237       4.149     -0.149
  H    238       0.730      0.270
  C    239       4.504     -0.504
  H    240       0.719      0.281
  H    241       0.737      0.263
  C    242       4.207     -0.207
  H    243       0.767      0.233
  C    244       4.784     -0.784
  H    245       0.736      0.264
  H    246       0.734      0.266
  H    247       0.748      0.252
  C    248       4.736     -0.736
  H    249       0.775      0.225
  H    250       0.753      0.247
  H    251       0.741      0.259
  C    252       3.451      0.549
  O    253       6.605     -0.605
  N    254       5.566     -0.566
  H    255       0.547      0.453
  C    256       4.151     -0.151
  H    257       0.703      0.297
  C    258       4.486     -0.486
  H    259       0.783      0.217
  H    260       0.708      0.292
  C    261       4.490     -0.490
  H    262       0.748      0.252
  H    263       0.712      0.288
  C    264       4.474     -0.474
  H    265       0.767      0.233
  H    266       0.728      0.272
  C    267       4.406     -0.406
  H    268       0.714      0.286
  H    269       0.682      0.318
  N    270       5.914     -0.914
  H    271       0.465      0.535
  H    272       0.460      0.540
  H    273       0.467      0.533
  C    274       3.443      0.557
  O    275       6.635     -0.635
  N    276       5.559     -0.559
  H    277       0.540      0.460
  C    278       4.143     -0.143
  H    279       0.737      0.263
  C    280       4.514     -0.514
  H    281       0.734      0.266
  H    282       0.707      0.293
  C    283       4.518     -0.518
  H    284       0.704      0.296
  H    285       0.737      0.263
  C    286       4.471     -0.471
  H    287       0.776      0.224
  H    288       0.718      0.282
  C    289       4.403     -0.403
  H    290       0.670      0.330
  H    291       0.706      0.294
  N    292       5.868     -0.868
  H    293       0.533      0.467
  H    294       0.500      0.500
  H    295       0.491      0.509
  C    296       3.458      0.542
  O    297       6.623     -0.623
  N    298       5.551     -0.551
  H    299       0.564      0.436
  C    300       4.148     -0.148
  H    301       0.693      0.307
  C    302       4.472     -0.472
  H    303       0.732      0.268
  H    304       0.755      0.245
  C    305       4.506     -0.506
  H    306       0.718      0.282
  H    307       0.743      0.257
  C    308       4.473     -0.473
  H    309       0.760      0.240
  H    310       0.718      0.282
  C    311       4.403     -0.403
  H    312       0.681      0.319
  H    313       0.701      0.299
  N    314       5.914     -0.914
  H    315       0.468      0.532
  H    316       0.473      0.527
  H    317       0.471      0.529
  C    318       3.455      0.545
  O    319       6.668     -0.668
  N    320       5.541     -0.541
  H    321       0.549      0.451
  C    322       4.161     -0.161
  H    323       0.718      0.282
  C    324       4.432     -0.432
  H    325       0.784      0.216
  H    326       0.696      0.304
  C    327       4.516     -0.516
  H    328       0.734      0.266
  H    329       0.781      0.219
  C    330       4.521     -0.521
  H    331       0.704      0.296
  H    332       0.685      0.315
  C    333       4.442     -0.442
  H    334       0.657      0.343
  H    335       0.678      0.322
  N    336       5.900     -0.900
  H    337       0.502      0.498
  H    338       0.460      0.540
  H    339       0.464      0.536
  C    340       3.447      0.553
  O    341       6.666     -0.666
  N    342       5.521     -0.521
  H    343       0.552      0.448
  C    344       4.172     -0.172
  H    345       0.716      0.284
  C    346       4.267     -0.267
  H    347       0.750      0.250
  H    348       0.703      0.297
  O    349       6.732     -0.732
  H    350       0.483      0.517
  C    351       3.458      0.542
  O    352       6.619     -0.619
  N    353       5.568     -0.568
  H    354       0.543      0.457
  C    355       4.140     -0.140
  H    356       0.712      0.288
  C    357       4.230     -0.230
  H    358       0.746      0.254
  C    359       4.775     -0.775
  H    360       0.729      0.271
  H    361       0.731      0.269
  H    362       0.739      0.261
  C    363       4.770     -0.770
  H    364       0.748      0.252
  H    365       0.731      0.269
  H    366       0.745      0.255
  C    367       3.463      0.537
  O    368       6.651     -0.651
  N    369       5.540     -0.540
  H    370       0.555      0.445
  C    371       4.171     -0.171
  H    372       0.718      0.282
  C    373       3.994      0.006
  H    374       0.712      0.288
  C    375       4.700     -0.700
  H    376       0.783      0.217
  H    377       0.751      0.249
  H    378       0.727      0.273
  O    379       6.726     -0.726
  H    380       0.483      0.517
  C    381       3.467      0.533
  O    382       6.607     -0.607
  N    383       5.550     -0.550
  H    384       0.536      0.464
  C    385       4.138     -0.138
  H    386       0.723      0.277
  C    387       4.233     -0.233
  H    388       0.747      0.253
  C    389       4.735     -0.735
  H    390       0.765      0.235
  H    391       0.759      0.241
  H    392       0.718      0.282
  C    393       4.734     -0.734
  H    394       0.748      0.252
  H    395       0.748      0.252
  H    396       0.758      0.242
  C    397       3.470      0.530
  O    398       6.643     -0.643
  N    399       5.532     -0.532
  H    400       0.561      0.439
  C    401       4.152     -0.152
  H    402       0.724      0.276
  C    403       4.453     -0.453
  H    404       0.752      0.248
  H    405       0.767      0.233
  C    406       4.236     -0.236
  H    407       0.743      0.257
  C    408       4.721     -0.721
  H    409       0.750      0.250
  H    410       0.779      0.221
  H    411       0.756      0.244
  C    412       4.720     -0.720
  H    413       0.785      0.215
  H    414       0.752      0.248
  H    415       0.746      0.254
  C    416       3.458      0.542
  O    417       6.621     -0.621
  N    418       5.526     -0.526
  H    419       0.558      0.442
  C    420       4.153     -0.153
  H    421       0.693      0.307
  C    422       4.589     -0.589
  H    423       0.704      0.296
  H    424       0.717      0.283
  C    425       3.339      0.661
  O    426       6.798     -0.798
  O    427       6.767     -0.767
  C    428       3.443      0.557
  O    429       6.643     -0.643
  N    430       5.533     -0.533
  H    431       0.549      0.451
  C    432       4.139     -0.139
  H    433       0.719      0.281
  C    434       4.235     -0.235
  H    435       0.731      0.269
  C    436       4.761     -0.761
  H    437       0.727      0.273
  H    438       0.771      0.229
  H    439       0.748      0.252
  C    440       4.705     -0.705
  H    441       0.749      0.251
  H    442       0.781      0.219
  H    443       0.763      0.237
  C    444       3.451      0.549
  O    445       6.624     -0.624
  N    446       5.540     -0.540
  H    447       0.570      0.430
  C    448       4.465     -0.465
  H    449       0.690      0.310
  H    450       0.680      0.320
  C    451       3.455      0.545
  O    452       6.619     -0.619
  N    453       5.554     -0.554
  H    454       0.542      0.458
  C    455       4.186     -0.186
  H    456       0.692      0.308
  C    457       4.566     -0.566
  H    458       0.695      0.305
  H    459       0.755      0.245
  C    460       3.321      0.679
  O    461       6.779     -0.779
  O    462       6.784     -0.784
  C    463       3.467      0.533
  O    464       6.616     -0.616
  N    465       5.562     -0.562
  H    466       0.538      0.462
  C    467       4.170     -0.170
  H    468       0.683      0.317
  C    469       4.755     -0.755
  H    470       0.734      0.266
  H    471       0.720      0.280
  H    472       0.713      0.287
  C    473       3.451      0.549
  O    474       6.601     -0.601
  N    475       5.577     -0.577
  H    476       0.562      0.438
  C    477       4.161     -0.161
  H    478       0.698      0.302
  C    479       4.545     -0.545
  H    480       0.727      0.273
  H    481       0.693      0.307
  C    482       4.028     -0.028
  C    483       4.236     -0.236
  H    484       0.737      0.263
  C    485       4.290     -0.290
  H    486       0.733      0.267
  C    487       3.759      0.241
  O    488       6.716     -0.716
  H    489       0.460      0.540
  C    490       4.315     -0.315
  H    491       0.706      0.294
  C    492       4.300     -0.300
  H    493       0.718      0.282
  C    494       3.465      0.535
  O    495       6.600     -0.600
  N    496       5.554     -0.554
  H    497       0.568      0.432
  C    498       4.171     -0.171
  H    499       0.693      0.307
  C    500       4.508     -0.508
  H    501       0.751      0.249
  H    502       0.671      0.329
  C    503       4.000      0.000
  C    504       4.288     -0.288
  H    505       0.704      0.296
  C    506       4.291     -0.291
  H    507       0.706      0.294
  C    508       4.303     -0.303
  H    509       0.716      0.284
  C    510       4.297     -0.297
  H    511       0.717      0.283
  C    512       4.270     -0.270
  H    513       0.744      0.256
  C    514       3.449      0.551
  O    515       6.640     -0.640
  N    516       5.538     -0.538
  H    517       0.577      0.423
  C    518       4.201     -0.201
  H    519       0.658      0.342
  C    520       4.245     -0.245
  H    521       0.760      0.240
  H    522       0.687      0.313
  O    523       6.772     -0.772
  H    524       0.490      0.510
  C    525       3.457      0.543
  O    526       6.643     -0.643
  N    527       5.541     -0.541
  H    528       0.552      0.448
  C    529       4.154     -0.154
  H    530       0.713      0.287
  C    531       4.233     -0.233
  H    532       0.724      0.276
  C    533       4.765     -0.765
  H    534       0.748      0.252
  H    535       0.758      0.242
  H    536       0.741      0.259
  C    537       4.735     -0.735
  H    538       0.723      0.277
  H    539       0.788      0.212
  H    540       0.745      0.255
  C    541       3.459      0.541
  O    542       6.612     -0.612
  N    543       5.607     -0.607
  H    544       0.548      0.452
  C    545       4.696     -0.696
  H    546       0.679      0.321
  H    547       0.704      0.296
  H    548       0.717      0.283
  H    549       0.682      0.318
  C    550       4.874     -0.874
  H    551       0.701      0.299
  H    552       0.700      0.300
  C    553       3.452      0.548
  O    554       6.625     -0.625
  N    555       5.595     -0.595
  H    556       0.544      0.456
  C    557       4.155     -0.155
  H    558       0.704      0.296
  C    559       4.532     -0.532
  H    560       0.687      0.313
  H    561       0.737      0.263
  C    562       4.059     -0.059
  C    563       4.187     -0.187
  H    564       0.700      0.300
  N    565       5.560     -0.560
  H    566       0.519      0.481
  C    567       3.875      0.125
  C    568       4.322     -0.322
  H    569       0.712      0.288
  C    570       4.295     -0.295
  H    571       0.716      0.284
  C    572       4.265     -0.265
  H    573       0.748      0.252
  C    574       4.284     -0.284
  H    575       0.722      0.278
  C    576       4.062     -0.062
  C    577       3.449      0.551
  O    578       6.621     -0.621
  N    579       5.561     -0.561
  H    580       0.555      0.445
  C    581       4.182     -0.182
  H    582       0.668      0.332
  C    583       4.517     -0.517
  H    584       0.724      0.276
  H    585       0.742      0.258
  C    586       4.494     -0.494
  H    587       0.738      0.262
  H    588       0.719      0.281
  C    589       4.523     -0.523
  H    590       0.730      0.270
  H    591       0.728      0.272
  C    592       4.387     -0.387
  H    593       0.723      0.277
  H    594       0.678      0.322
  N    595       5.873     -0.873
  H    596       0.510      0.490
  H    597       0.527      0.473
  H    598       0.504      0.496
  C    599       3.454      0.546
  O    600       6.618     -0.618
  N    601       5.566     -0.566
  H    602       0.558      0.442
  C    603       4.427     -0.427
  H    604       0.668      0.332
  H    605       0.675      0.325
  C    606       3.450      0.550
  O    607       6.636     -0.636
  N    608       5.535     -0.535
  H    609       0.560      0.440
  C    610       4.193     -0.193
  H    611       0.666      0.334
  C    612       4.239     -0.239
  H    613       0.763      0.237
  H    614       0.697      0.303
  O    615       6.775     -0.775
  H    616       0.459      0.541
  C    617       3.459      0.541
  O    618       6.601     -0.601
  N    619       5.313     -0.313
  C    620       4.367     -0.367
  H    621       0.718      0.282
  H    622       0.728      0.272
  C    623       4.530     -0.530
  H    624       0.707      0.293
  H    625       0.711      0.289
  C    626       4.496     -0.496
  H    627       0.755      0.245
  H    628       0.714      0.286
  C    629       4.147     -0.147
  H    630       0.709      0.291
  C    631       3.451      0.549
  O    632       6.611     -0.611
  N    633       5.561     -0.561
  H    634       0.556      0.444
  C    635       4.158     -0.158
  H    636       0.687      0.313
  C    637       4.772     -0.772
  H    638       0.745      0.255
  H    639       0.708      0.292
  H    640       0.711      0.289
  C    641       3.458      0.542
  O    642       6.623     -0.623
  N    643       5.535     -0.535
  H    644       0.564      0.436
  C    645       4.134     -0.134
  H    646       0.739      0.261
  C    647       4.232     -0.232
  H    648       0.731      0.269
  C    649       4.759     -0.759
  H    650       0.737      0.263
  H    651       0.737      0.263
  H    652       0.739      0.261
  C    653       4.479     -0.479
  H    654       0.757      0.243
  H    655       0.754      0.246
  C    656       4.720     -0.720
  H    657       0.748      0.252
  H    658       0.743      0.257
  H    659       0.784      0.216
  C    660       3.469      0.531
  O    661       6.602     -0.602
  N    662       5.538     -0.538
  H    663       0.559      0.441
  C    664       4.153     -0.153
  H    665       0.697      0.303
  C    666       4.506     -0.506
  H    667       0.717      0.283
  H    668       0.744      0.256
  C    669       4.020     -0.020
  C    670       4.241     -0.241
  H    671       0.758      0.242
  C    672       4.268     -0.268
  H    673       0.715      0.285
  C    674       4.275     -0.275
  H    675       0.734      0.266
  C    676       4.254     -0.254
  H    677       0.694      0.306
  C    678       4.289     -0.289
  H    679       0.748      0.252
  C    680       3.453      0.547
  O    681       6.598     -0.598
  N    682       5.538     -0.538
  H    683       0.568      0.432
  C    684       4.141     -0.141
  H    685       0.717      0.283
  C    686       4.500     -0.500
  H    687       0.724      0.276
  H    688       0.733      0.267
  C    689       4.555     -0.555
  H    690       0.707      0.293
  H    691       0.739      0.261
  C    692       3.447      0.553
  O    693       6.616     -0.616
  N    694       5.851     -0.851
  H    695       0.557      0.443
  H    696       0.551      0.449
  C    697       3.463      0.537
  O    698       6.609     -0.609
  N    699       5.527     -0.527
  H    700       0.575      0.425
  C    701       4.183     -0.183
  H    702       0.673      0.327
  C    703       4.290     -0.290
  H    704       0.698      0.302
  H    705       0.720      0.280
  O    706       6.736     -0.736
  H    707       0.513      0.487
  C    708       3.466      0.534
  O    709       6.628     -0.628
  N    710       5.522     -0.522
  H    711       0.573      0.427
  C    712       4.193     -0.193
  H    713       0.690      0.310
  C    714       4.257     -0.257
  H    715       0.749      0.251
  H    716       0.686      0.314
  O    717       6.786     -0.786
  H    718       0.501      0.499
  C    719       3.464      0.536
  O    720       6.615     -0.615
  N    721       5.540     -0.540
  H    722       0.571      0.429
  C    723       4.155     -0.155
  H    724       0.696      0.304
  C    725       4.451     -0.451
  H    726       0.728      0.272
  H    727       0.773      0.227
  C    728       4.631     -0.631
  H    729       0.722      0.278
  H    730       0.706      0.294
  S    731       5.853      0.147
  C    732       4.876     -0.876
  H    733       0.720      0.280
  H    734       0.737      0.263
  H    735       0.733      0.267
  C    736       3.467      0.533
  O    737       6.604     -0.604
  N    738       5.534     -0.534
  H    739       0.596      0.404
  C    740       4.180     -0.180
  H    741       0.669      0.331
  C    742       3.989      0.011
  H    743       0.762      0.238
  C    744       4.802     -0.802
  H    745       0.711      0.289
  H    746       0.726      0.274
  H    747       0.712      0.288
  O    748       6.744     -0.744
  H    749       0.523      0.477
  C    750       3.475      0.525
  O    751       6.610     -0.610
  N    752       5.549     -0.549
  H    753       0.579      0.421
  C    754       4.161     -0.161
  H    755       0.680      0.320
  C    756       4.509     -0.509
  H    757       0.736      0.264
  H    758       0.718      0.282
  C    759       4.504     -0.504
  H    760       0.719      0.281
  H    761       0.728      0.272
  C    762       4.531     -0.531
  H    763       0.726      0.274
  H    764       0.724      0.276
  C    765       4.434     -0.434
  H    766       0.664      0.336
  H    767       0.671      0.329
  N    768       5.933     -0.933
  H    769       0.469      0.531
  H    770       0.461      0.539
  H    771       0.465      0.535
  C    772       3.464      0.536
  O    773       6.636     -0.636
  N    774       5.540     -0.540
  H    775       0.575      0.425
  C    776       4.170     -0.170
  H    777       0.695      0.305
  C    778       4.219     -0.219
  H    779       0.747      0.253
  C    780       4.712     -0.712
  H    781       0.765      0.235
  H    782       0.765      0.235
  H    783       0.749      0.251
  C    784       4.486     -0.486
  H    785       0.751      0.249
  H    786       0.744      0.256
  C    787       4.730     -0.730
  H    788       0.774      0.226
  H    789       0.734      0.266
  H    790       0.768      0.232
  C    791       3.464      0.536
  O    792       6.632     -0.632
  N    793       5.525     -0.525
  H    794       0.579      0.421
  C    795       4.141     -0.141
  H    796       0.723      0.277
  C    797       4.472     -0.472
  H    798       0.752      0.248
  H    799       0.727      0.273
  C    800       4.229     -0.229
  H    801       0.755      0.245
  C    802       4.713     -0.713
  H    803       0.749      0.251
  H    804       0.770      0.230
  H    805       0.783      0.217
  C    806       4.715     -0.715
  H    807       0.738      0.262
  H    808       0.791      0.209
  H    809       0.750      0.250
  C    810       3.452      0.548
  O    811       6.653     -0.653
  N    812       5.516     -0.516
  H    813       0.563      0.437
  C    814       4.170     -0.170
  H    815       0.694      0.306
  C    816       4.456     -0.456
  H    817       0.736      0.264
  H    818       0.762      0.238
  C    819       4.599     -0.599
  H    820       0.733      0.267
  H    821       0.736      0.264
  C    822       3.323      0.677
  O    823       6.783     -0.783
  O    824       6.793     -0.793
  C    825       3.470      0.530
  O    826       6.630     -0.630
  N    827       5.321     -0.321
  C    828       4.362     -0.362
  H    829       0.712      0.288
  H    830       0.733      0.267
  C    831       4.508     -0.508
  H    832       0.735      0.265
  H    833       0.727      0.273
  C    834       4.533     -0.533
  H    835       0.711      0.289
  H    836       0.725      0.275
  C    837       4.174     -0.174
  H    838       0.681      0.319
  C    839       3.456      0.544
  O    840       6.643     -0.643
  N    841       5.548     -0.548
  H    842       0.549      0.451
  C    843       4.162     -0.162
  H    844       0.701      0.299
  C    845       4.501     -0.501
  H    846       0.725      0.275
  H    847       0.718      0.282
  C    848       3.999      0.001
  C    849       4.282     -0.282
  H    850       0.753      0.247
  C    851       4.245     -0.245
  H    852       0.740      0.260
  C    853       4.282     -0.282
  H    854       0.718      0.282
  C    855       4.231     -0.231
  H    856       0.770      0.230
  C    857       4.281     -0.281
  H    858       0.726      0.274
  C    859       3.466      0.534
  O    860       6.636     -0.636
  N    861       5.535     -0.535
  H    862       0.556      0.444
  C    863       4.182     -0.182
  H    864       0.672      0.328
  C    865       4.798     -0.798
  H    866       0.721      0.279
  H    867       0.700      0.300
  H    868       0.721      0.279
  C    869       3.457      0.543
  O    870       6.625     -0.625
  N    871       5.551     -0.551
  H    872       0.567      0.433
  C    873       4.183     -0.183
  H    874       0.666      0.334
  C    875       4.806     -0.806
  H    876       0.732      0.268
  H    877       0.713      0.287
  H    878       0.708      0.292
  C    879       3.445      0.555
  O    880       6.631     -0.631
  N    881       5.563     -0.563
  H    882       0.572      0.428
  C    883       4.173     -0.173
  H    884       0.671      0.329
  C    885       4.511     -0.511
  H    886       0.783      0.217
  H    887       0.697      0.303
  C    888       4.569     -0.569
  H    889       0.692      0.308
  H    890       0.694      0.306
  C    891       3.443      0.557
  O    892       6.711     -0.711
  N    893       5.811     -0.811
  H    894       0.556      0.444
  H    895       0.516      0.484
  C    896       3.452      0.548
  O    897       6.637     -0.637
  N    898       5.545     -0.545
  H    899       0.553      0.447
  C    900       4.162     -0.162
  H    901       0.688      0.312
  C    902       4.520     -0.520
  H    903       0.721      0.279
  H    904       0.719      0.281
  C    905       3.435      0.565
  O    906       6.652     -0.652
  N    907       5.811     -0.811
  H    908       0.556      0.444
  H    909       0.545      0.455
  C    910       3.474      0.526
  O    911       6.609     -0.609
  N    912       5.304     -0.304
  C    913       4.395     -0.395
  H    914       0.721      0.279
  H    915       0.698      0.302
  C    916       4.536     -0.536
  H    917       0.726      0.274
  H    918       0.710      0.290
  C    919       4.533     -0.533
  H    920       0.712      0.288
  H    921       0.710      0.290
  C    922       4.183     -0.183
  H    923       0.653      0.347
  C    924       3.457      0.543
  O    925       6.648     -0.648
  N    926       5.558     -0.558
  H    927       0.557      0.443
  C    928       4.182     -0.182
  H    929       0.673      0.327
  C    930       4.614     -0.614
  H    931       0.703      0.297
  H    932       0.722      0.278
  C    933       3.338      0.662
  O    934       6.753     -0.753
  O    935       6.771     -0.771
  C    936       3.430      0.570
  O    937       6.691     -0.691
  N    938       5.520     -0.520
  H    939       0.547      0.453
  C    940       4.156     -0.156
  H    941       0.718      0.282
  C    942       4.229     -0.229
  H    943       0.764      0.236
  C    944       4.713     -0.713
  H    945       0.771      0.229
  H    946       0.773      0.227
  H    947       0.726      0.274
  C    948       4.484     -0.484
  H    949       0.717      0.283
  H    950       0.767      0.233
  C    951       4.704     -0.704
  H    952       0.761      0.239
  H    953       0.789      0.211
  H    954       0.767      0.233
  C    955       3.460      0.540
  O    956       6.612     -0.612
  N    957       5.567     -0.567
  H    958       0.576      0.424
  C    959       4.148     -0.148
  H    960       0.714      0.286
  C    961       4.236     -0.236
  H    962       0.741      0.259
  C    963       4.758     -0.758
  H    964       0.728      0.272
  H    965       0.754      0.246
  H    966       0.738      0.262
  C    967       4.771     -0.771
  H    968       0.754      0.246
  H    969       0.765      0.235
  H    970       0.718      0.282
  C    971       3.459      0.541
  O    972       6.635     -0.635
  N    973       5.552     -0.552
  H    974       0.535      0.465
  C    975       4.142     -0.142
  H    976       0.726      0.274
  C    977       4.237     -0.237
  H    978       0.723      0.277
  C    979       4.718     -0.718
  H    980       0.773      0.227
  H    981       0.771      0.229
  H    982       0.729      0.271
  C    983       4.457     -0.457
  H    984       0.797      0.203
  H    985       0.739      0.261
  C    986       4.741     -0.741
  H    987       0.763      0.237
  H    988       0.755      0.245
  H    989       0.741      0.259
  C    990       3.457      0.543
  O    991       6.632     -0.632
  N    992       5.535     -0.535
  H    993       0.577      0.423
  C    994       4.166     -0.166
  H    995       0.685      0.315
  C    996       4.475     -0.475
  H    997       0.775      0.225
  H    998       0.727      0.273
  C    999       4.012     -0.012
  C   1000       4.255     -0.255
  H   1001       0.729      0.271
  C   1002       4.294     -0.294
  H   1003       0.761      0.239
  C   1004       3.759      0.241
  O   1005       6.729     -0.729
  H   1006       0.464      0.536
  C   1007       4.287     -0.287
  H   1008       0.730      0.270
  C   1009       4.267     -0.267
  H   1010       0.730      0.270
  C   1011       3.453      0.547
  O   1012       6.627     -0.627
  N   1013       5.555     -0.555
  H   1014       0.524      0.476
  C   1015       4.141     -0.141
  H   1016       0.721      0.279
  C   1017       4.512     -0.512
  H   1018       0.689      0.311
  H   1019       0.723      0.277
  C   1020       4.550     -0.550
  H   1021       0.745      0.255
  H   1022       0.707      0.293
  C   1023       3.467      0.533
  O   1024       6.655     -0.655
  N   1025       5.772     -0.772
  H   1026       0.569      0.431
  H   1027       0.575      0.425
  C   1028       3.463      0.537
  O   1029       6.654     -0.654
  N   1030       5.539     -0.539
  H   1031       0.546      0.454
  C   1032       4.169     -0.169
  H   1033       0.698      0.302
  C   1034       4.483     -0.483
  H   1035       0.706      0.294
  H   1036       0.757      0.243
  C   1037       4.033     -0.033
  C   1038       4.283     -0.283
  H   1039       0.713      0.287
  C   1040       4.279     -0.279
  H   1041       0.748      0.252
  C   1042       3.758      0.242
  O   1043       6.720     -0.720
  H   1044       0.458      0.542
  C   1045       4.307     -0.307
  H   1046       0.757      0.243
  C   1047       4.290     -0.290
  H   1048       0.706      0.294
  C   1049       3.477      0.523
  O   1050       6.554     -0.554
  N   1051       5.554     -0.554
  H   1052       0.597      0.403
  C   1053       4.188     -0.188
  H   1054       0.685      0.315
  C   1055       4.531     -0.531
  H   1056       0.691      0.309
  H   1057       0.717      0.283
  C   1058       4.621     -0.621
  H   1059       0.699      0.301
  H   1060       0.777      0.223
  S   1061       5.857      0.143
  C   1062       4.920     -0.920
  H   1063       0.747      0.253
  H   1064       0.677      0.323
  H   1065       0.705      0.295
  C   1066       3.448      0.552
  O   1067       6.602     -0.602
  N   1068       5.545     -0.545
  H   1069       0.613      0.387
  C   1070       4.177     -0.177
  H   1071       0.648      0.352
  C   1072       4.596     -0.596
  H   1073       0.752      0.248
  H   1074       0.691      0.309
  C   1075       3.308      0.692
  O   1076       6.773     -0.773
  O   1077       6.798     -0.798
  C   1078       3.441      0.559
  O   1079       6.624     -0.624
  N   1080       5.534     -0.534
  H   1081       0.584      0.416
  C   1082       4.148     -0.148
  H   1083       0.684      0.316
  C   1084       4.545     -0.545
  H   1085       0.775      0.225
  H   1086       0.733      0.267
  C   1087       3.340      0.660
  O   1088       6.695     -0.695
  O   1089       6.763     -0.763
  C   1090       3.462      0.538
  O   1091       6.630     -0.630
  N   1092       5.551     -0.551
  H   1093       0.558      0.442
  C   1094       4.141     -0.141
  H   1095       0.717      0.283
  C   1096       4.467     -0.467
  H   1097       0.764      0.236
  H   1098       0.758      0.242
  C   1099       4.233     -0.233
  H   1100       0.726      0.274
  C   1101       4.736     -0.736
  H   1102       0.777      0.223
  H   1103       0.746      0.254
  H   1104       0.755      0.245
  C   1105       4.695     -0.695
  H   1106       0.773      0.227
  H   1107       0.758      0.242
  H   1108       0.783      0.217
  C   1109       3.450      0.550
  O   1110       6.639     -0.639
  N   1111       5.540     -0.540
  H   1112       0.550      0.450
  C   1113       4.145     -0.145
  H   1114       0.719      0.281
  C   1115       4.494     -0.494
  H   1116       0.768      0.232
  H   1117       0.715      0.285
  C   1118       4.014     -0.014
  C   1119       4.230     -0.230
  H   1120       0.786      0.214
  C   1121       4.289     -0.289
  H   1122       0.744      0.256
  C   1123       3.756      0.244
  O   1124       6.749     -0.749
  H   1125       0.484      0.516
  C   1126       4.292     -0.292
  H   1127       0.736      0.264
  C   1128       4.264     -0.264
  H   1129       0.736      0.264
  C   1130       3.450      0.550
  O   1131       6.622     -0.622
  N   1132       5.529     -0.529
  H   1133       0.562      0.438
  C   1134       4.147     -0.147
  H   1135       0.704      0.296
  C   1136       4.215     -0.215
  H   1137       0.770      0.230
  C   1138       4.726     -0.726
  H   1139       0.762      0.238
  H   1140       0.745      0.255
  H   1141       0.760      0.240
  C   1142       4.702     -0.702
  H   1143       0.752      0.248
  H   1144       0.756      0.244
  H   1145       0.766      0.234
  C   1146       3.447      0.553
  O   1147       6.638     -0.638
  N   1148       5.536     -0.536
  H   1149       0.550      0.450
  C   1150       4.414     -0.414
  H   1151       0.715      0.285
  H   1152       0.694      0.306
  C   1153       3.469      0.531
  O   1154       6.623     -0.623
  N   1155       5.548     -0.548
  H   1156       0.557      0.443
  C   1157       4.179     -0.179
  H   1158       0.718      0.282
  C   1159       4.226     -0.226
  H   1160       0.780      0.220
  H   1161       0.727      0.273
  O   1162       6.730     -0.730
  H   1163       0.501      0.499
  C   1164       3.457      0.543
  O   1165       6.607     -0.607
  N   1166       5.572     -0.572
  H   1167       0.550      0.450
  C   1168       4.101     -0.101
  H   1169       0.752      0.248
  C   1170       4.602     -0.602
  H   1171       0.715      0.285
  H   1172       0.696      0.304
  C   1173       3.341      0.659
  O   1174       6.743     -0.743
  O   1175       6.750     -0.750
  C   1176       3.447      0.553
  O   1177       6.649     -0.649
  N   1178       5.499     -0.499
  H   1179       0.589      0.411
  C   1180       4.154     -0.154
  H   1181       0.730      0.270
  C   1182       4.463     -0.463
  H   1183       0.754      0.246
  H   1184       0.750      0.250
  C   1185       4.241     -0.241
  H   1186       0.723      0.277
  C   1187       4.763     -0.763
  H   1188       0.773      0.227
  H   1189       0.708      0.292
  H   1190       0.757      0.243
  C   1191       4.749     -0.749
  H   1192       0.761      0.239
  H   1193       0.730      0.270
  H   1194       0.755      0.245
  C   1195       3.436      0.564
  O   1196       6.620     -0.620
  N   1197       5.565     -0.565
  H   1198       0.549      0.451
  C   1199       4.165     -0.165
  H   1200       0.713      0.287
  C   1201       4.514     -0.514
  H   1202       0.728      0.272
  H   1203       0.728      0.272
  C   1204       4.581     -0.581
  H   1205       0.777      0.223
  H   1206       0.693      0.307
  C   1207       3.344      0.656
  O   1208       6.721     -0.721
  O   1209       6.739     -0.739
  C   1210       3.438      0.562
  O   1211       6.608     -0.608
  N   1212       5.524     -0.524
  H   1213       0.596      0.404
  C   1214       4.158     -0.158
  H   1215       0.694      0.306
  C   1216       4.238     -0.238
  H   1217       0.723      0.277
  C   1218       4.758     -0.758
  H   1219       0.736      0.264
  H   1220       0.743      0.257
  H   1221       0.771      0.229
  C   1222       4.486     -0.486
  H   1223       0.727      0.273
  H   1224       0.777      0.223
  C   1225       4.790     -0.790
  H   1226       0.750      0.250
  H   1227       0.716      0.284
  H   1228       0.730      0.270
  C   1229       3.464      0.536
  O   1230       6.628     -0.628
  N   1231       5.542     -0.542
  H   1232       0.547      0.453
  C   1233       4.466     -0.466
  H   1234       0.692      0.308
  H   1235       0.644      0.356
  C   1236       3.456      0.544
  O   1237       6.636     -0.636
  N   1238       5.529     -0.529
  H   1239       0.548      0.452
  C   1240       4.169     -0.169
  H   1241       0.693      0.307
  C   1242       4.483     -0.483
  H   1243       0.748      0.252
  H   1244       0.706      0.294
  C   1245       4.567     -0.567
  H   1246       0.700      0.300
  H   1247       0.736      0.264
  C   1248       3.439      0.561
  O   1249       6.628     -0.628
  N   1250       5.881     -0.881
  H   1251       0.533      0.467
  H   1252       0.530      0.470
  C   1253       3.458      0.542
  O   1254       6.618     -0.618
  N   1255       5.533     -0.533
  H   1256       0.565      0.435
  C   1257       4.169     -0.169
  H   1258       0.672      0.328
  C   1259       4.534     -0.534
  H   1260       0.678      0.322
  H   1261       0.741      0.259
  C   1262       3.907      0.093
  N   1263       5.456     -0.456
  C   1264       3.991      0.009
  H   1265       0.714      0.286
  N   1266       5.503     -0.503
  H   1267       0.557      0.443
  C   1268       4.176     -0.176
  H   1269       0.725      0.275
  C   1270       3.457      0.543
  O   1271       6.597     -0.597
  N   1272       5.541     -0.541
  H   1273       0.580      0.420
  C   1274       4.147     -0.147
  H   1275       0.720      0.280
  C   1276       4.524     -0.524
  H   1277       0.706      0.294
  H   1278       0.730      0.270
  C   1279       4.499     -0.499
  H   1280       0.748      0.252
  H   1281       0.734      0.266
  C   1282       4.342     -0.342
  H   1283       0.702      0.298
  H   1284       0.757      0.243
  N   1285       5.517     -0.517
  H   1286       0.542      0.458
  C   1287       3.463      0.537
  N   1288       5.812     -0.812
  H   1289       0.541      0.459
  H   1290       0.508      0.492
  N   1291       5.827     -0.827
  H   1292       0.539      0.461
  H   1293       0.516      0.484
  C   1294       3.454      0.546
  O   1295       6.619     -0.619
  N   1296       5.533     -0.533
  H   1297       0.585      0.415
  C   1298       4.182     -0.182
  H   1299       0.685      0.315
  C   1300       3.990      0.010
  H   1301       0.745      0.255
  C   1302       4.801     -0.801
  H   1303       0.725      0.275
  H   1304       0.716      0.284
  H   1305       0.714      0.286
  O   1306       6.783     -0.783
  H   1307       0.494      0.506
  C   1308       3.469      0.531
  O   1309       6.612     -0.612
  N   1310       5.541     -0.541
  H   1311       0.574      0.426
  C   1312       4.146     -0.146
  H   1313       0.703      0.297
  C   1314       4.501     -0.501
  H   1315       0.734      0.266
  H   1316       0.727      0.273
  C   1317       4.491     -0.491
  H   1318       0.746      0.254
  H   1319       0.735      0.265
  C   1320       4.484     -0.484
  H   1321       0.723      0.277
  H   1322       0.744      0.256
  C   1323       4.418     -0.418
  H   1324       0.698      0.302
  H   1325       0.676      0.324
  N   1326       5.901     -0.901
  H   1327       0.501      0.499
  H   1328       0.491      0.509
  H   1329       0.494      0.506
  C   1330       3.454      0.546
  O   1331       6.617     -0.617
  N   1332       5.539     -0.539
  H   1333       0.572      0.428
  C   1334       4.143     -0.143
  H   1335       0.722      0.278
  C   1336       4.214     -0.214
  H   1337       0.759      0.241
  C   1338       4.702     -0.702
  H   1339       0.769      0.231
  H   1340       0.784      0.216
  H   1341       0.740      0.260
  C   1342       4.470     -0.470
  H   1343       0.735      0.265
  H   1344       0.757      0.243
  C   1345       4.715     -0.715
  H   1346       0.762      0.238
  H   1347       0.757      0.243
  H   1348       0.789      0.211
  C   1349       3.467      0.533
  O   1350       6.618     -0.618
  N   1351       5.537     -0.537
  H   1352       0.565      0.435
  C   1353       4.147     -0.147
  H   1354       0.704      0.296
  C   1355       4.509     -0.509
  H   1356       0.717      0.283
  H   1357       0.743      0.257
  C   1358       4.591     -0.591
  H   1359       0.709      0.291
  H   1360       0.737      0.263
[...]
 O    6048        26.6570370       0.0360970      23.3157969
 N    6049        28.2925281       0.0583348      27.5544910
 H    6050         2.4254692       0.0000000       8.6765872
 C    6051        21.6427313       0.0960695      36.4862988
 H    6052         3.7200948       0.0000000       8.6801331
 C    6053        30.7454238       0.0962337      36.4761740
 H    6054         3.1562047       0.0000000       8.6819563
 H    6055         3.8324014       0.0000000       8.6758359
 C    6056        17.4548926       0.0948386      36.4557604
 O    6057        30.8147555       0.0362430      23.3227537
 N    6058        35.0069072       0.0585369      27.5432906
 H    6059         2.8303373       0.0000000       8.6801979
 H    6060         2.2831131       0.0000000       8.6798467
 C    6061        23.1744797       0.0941482      36.4623995
 O    6062        27.8093719       0.0383920      23.3193865
 N    6063        29.6719790       0.0558177      27.5273246
 H    6064         4.3138614       0.0000000       8.6803260
 C    6065        24.6469695       0.0963393      36.4748918
 H    6066         4.0512861       0.0000000       8.6759186
 C    6067        26.9797733       0.0952166      36.4822336
 H    6068         4.6136185       0.0000000       8.6754536
 H    6069         3.9248186       0.0000000       8.6771294
 C    6070        28.6960418       0.0941978      36.4764144
 H    6071         4.6254398       0.0000000       8.6784679
 H    6072         4.8741696       0.0000000       8.6762109
 C    6073        16.6996406       0.0896027      36.4305863
 O    6074        35.6334973       0.0385541      23.3258315
 O    6075        38.8563251       0.0383115      23.3213424
 C    6076        24.7750562       0.0958417      36.4735990
 O    6077        29.7944148       0.0350496      23.3065516
 N    6078        26.5580511       0.0593251      27.5488297
 H    6079         4.4347963       0.0000000       8.6801585
 C    6080        24.6351370       0.0952378      36.4531922
 H    6081         3.9709046       0.0000000       8.6731595
 C    6082        22.4802105       0.0939697      36.4652154
 H    6083         4.0511579       0.0000000       8.6775082
 C    6084        29.3333741       0.0952482      36.4904078
 H    6085         4.4399429       0.0000000       8.6715393
 H    6086         4.0559580       0.0000000       8.6747774
 H    6087         4.0907686       0.0000000       8.6817224
 O    6088        29.5060328       0.0358779      23.3205350
 H    6089         2.9792790       0.0000000       8.6808874
 C    6090        23.1328287       0.0936225      36.4670208
 O    6091        27.5116865       0.0374157      23.3152886
 N    6092        25.2092532       0.0607571      27.5553348
 C    6093        24.5530243       0.0940475      36.4487874
 H    6094         4.0598421       0.0000000       8.6746372
 H    6095         4.5971329       0.0000000       8.6746433
 C    6096        23.9807063       0.0949424      36.4948896
 H    6097         4.3917408       0.0000000       8.6739890
 H    6098         4.4032052       0.0000000       8.6799556
 C    6099        25.4815999       0.0955498      36.4705355
 H    6100         3.8122402       0.0000000       8.6788216
 H    6101         3.9176472       0.0000000       8.6784607
 C    6102        26.4413085       0.0900465      36.4542942
 H    6103         4.5757106       0.0000000       8.6773565
 C    6104        23.9413094       0.0936093      36.4526827
 O    6105        27.7069866       0.0401194      23.3483215
 N    6106        29.5905537       0.0583404      27.5463777
 H    6107         2.1581203       0.0000000       8.6724859
 C    6108        25.3698289       0.0956464      36.4719208
 H    6109         3.8699289       0.0000000       8.6746209
 H    6110         4.6547210       0.0000000       8.6771957
 C    6111        20.5889462       0.0959942      36.4975918
 O    6112        27.9065959       0.0401364      23.3634160
 N    6113        32.2880675       0.0574876      27.5373548
 H    6114         3.2587438       0.0000000       8.6760814
 C    6115        24.3548445       0.0936822      36.4743155
 H    6116         4.6184549       0.0000000       8.6797412
 C    6117        24.4347213       0.0942409      36.4563121
 H    6118         4.4013967       0.0000000       8.6737406
 C    6119        31.5227328       0.0926233      36.4597447
 H    6120         4.1807091       0.0000000       8.6786726
 H    6121         4.3531745       0.0000000       8.6796861
 H    6122         4.5136778       0.0000000       8.6794250
 C    6123        24.4087517       0.0923626      36.4682897
 H    6124         4.5622229       0.0000000       8.6779369
 H    6125         4.1202623       0.0000000       8.6737126
 C    6126        28.3187770       0.0926354      36.4654339
 H    6127         4.4742577       0.0000000       8.6765301
 H    6128         4.1879509       0.0000000       8.6762014
 H    6129         4.8365844       0.0000000       8.6786519
 C    6130        22.2208901       0.0941581      36.4647438
 O    6131        27.5737871       0.0354234      23.3234710
 N    6132        29.2426347       0.0570137      27.5295161
 H    6133         2.5403602       0.0000000       8.6829759
 C    6134        21.8641039       0.0891805      36.4623454
 H    6135         4.8687346       0.0000000       8.6774683
 C    6136        27.7159332       0.0918215      36.4480766
 H    6137         3.7237248       0.0000000       8.6755759
 H    6138         5.0203340       0.0000000       8.6802291
 C    6139        25.4620864       0.0918554      36.4567937
 H    6140         4.6899610       0.0000000       8.6786024
 H    6141         4.5247378       0.0000000       8.6750351
 C    6142        22.8722176       0.0937493      36.4608838
 H    6143         3.9592624       0.0000000       8.6752295
 H    6144         5.9895580       0.0000000       8.6698526
 N    6145        28.3856168       0.0554072      27.5179507
 H    6146         2.4017318       0.0000000       8.6765987
 C    6147        20.6186593       0.0921840      36.4338606
 N    6148        32.2601681       0.0571172      27.5360130
 H    6149         3.6521557       0.0000000       8.6802034
 H    6150         3.0997731       0.0000000       8.6741663
 N    6151        34.5745877       0.0591879      27.5728918
 H    6152         2.3813606       0.0000000       8.6817663
 H    6153         2.1448780       0.0000000       8.6758059
 C    6154        22.4359625       0.0887345      36.4523116
 O    6155        29.0254255       0.0374932      23.3138116
 N    6156        29.5542384       0.0576166      27.5603616
 H    6157         3.7286302       0.0000000       8.6806070
 C    6158        21.2436589       0.0903519      36.4509700
 H    6159         4.4380646       0.0000000       8.6793851
 C    6160        30.1467789       0.0931773      36.4516658
 H    6161         3.7515044       0.0000000       8.6764894
 H    6162         4.2972200       0.0000000       8.6761844
 C    6163        27.7680103       0.0929786      36.4838423
 C    6164        28.9862533       0.0960057      36.4668729
 H    6165         3.6014105       0.0000000       8.6736965
 C    6166        33.4545215       0.0944840      36.4807653
 H    6167         3.5103021       0.0000000       8.6700937
 C    6168        24.5676631       0.0949158      36.4641127
 O    6169        27.3901578       0.0361476      23.3264022
 H    6170         1.5667075       0.0000000       8.6778301
 C    6171        31.1030017       0.0958752      36.4850023
 H    6172         3.5850162       0.0000000       8.6838324
 C    6173        28.8427940       0.0975123      36.5060470
 H    6174         3.9586440       0.0000000       8.6761233
 C    6175        22.8430834       0.0966971      36.4766413
 O    6176        26.4933072       0.0397205      23.3458380
 N    6177        29.2564446       0.0615360      27.5643524
 H    6178         4.3805675       0.0000000       8.6686338
 C    6179        22.8070111       0.0957277      36.4716739
 H    6180         4.0714127       0.0000000       8.6689286
 C    6181        25.6422774       0.0935807      36.4786050
 H    6182         4.5596689       0.0000000       8.6757407
 H    6183         4.7692006       0.0000000       8.6789082
 C    6184        28.7363295       0.0908106      36.4318033
 H    6185         4.1566020       0.0000000       8.6771757
 H    6186         4.4978868       0.0000000       8.6783901
 C    6187        20.2124699       0.0968845      36.4816358
 O    6188        30.7204083       0.0400637      23.3554371
 N    6189        34.1205141       0.0569125      27.5204419
 H    6190         2.1931074       0.0000000       8.6786006
 H    6191         1.8670482       0.0000000       8.6730691
 C    6192        21.9384262       0.0923592      36.4494248
 O    6193        26.4540839       0.0386266      23.3348348
 N    6194        28.6813898       0.0566289      27.5553685
 H    6195         4.1461363       0.0000000       8.6779382
 C    6196        22.4728612       0.0922109      36.4553579
 H    6197         4.8164797       0.0000000       8.6772750
 C    6198        28.1206304       0.0941021      36.4874830
 H    6199         4.2961300       0.0000000       8.6769140
 H    6200         4.4007073       0.0000000       8.6791206
 C    6201        28.1798619       0.0948623      36.4792596
 C    6202        29.8489080       0.0937101      36.4667613
 H    6203         3.5850465       0.0000000       8.6718289
 C    6204        35.3425954       0.0916269      36.4316252
 H    6205         3.5430198       0.0000000       8.6820487
 C    6206        23.7260449       0.0937889      36.4571366
 O    6207        26.9165065       0.0377077      23.3385076
 H    6208         1.9014177       0.0000000       8.6739809
 C    6209        32.5618297       0.0938565      36.4789865
 H    6210         3.5444975       0.0000000       8.6802188
 C    6211        31.3842423       0.0912831      36.4636956
 H    6212         3.8445171       0.0000000       8.6778965
 C    6213        23.4463423       0.0958179      36.4779839
 O    6214        28.0358329       0.0395810      23.3509401
 N    6215        29.9085395       0.0587604      27.5153547
 H    6216         4.3959356       0.0000000       8.6763717
 C    6217        21.8009226       0.0911860      36.4625825
 H    6218         4.5361458       0.0000000       8.6767935
 C    6219        31.6943622       0.0919454      36.4567843
 H    6220         3.5318201       0.0000000       8.6772218
 H    6221         3.7443134       0.0000000       8.6772634
 C    6222        19.4739653       0.0923978      36.4689321
 O    6223        30.1088462       0.0386997      23.3457705
 N    6224        33.4236869       0.0580378      27.5504745
 H    6225         2.5094540       0.0000000       8.6734537
 H    6226         1.4773976       0.0000000       8.6780980
 C    6227        22.7454304       0.0948466      36.4695195
 O    6228        29.5031095       0.0407366      23.3477920
 N    6229        27.7413033       0.0618393      27.5795395
 H    6230         3.8509113       0.0000000       8.6786496
 C    6231        23.6007733       0.0963514      36.4945201
 H    6232         4.2488144       0.0000000       8.6757087
 C    6233        22.3836688       0.0987447      36.4789844
 H    6234         4.3239795       0.0000000       8.6812155
 C    6235        28.8339011       0.0938014      36.4658060
 H    6236         4.3833429       0.0000000       8.6752490
 H    6237         4.2529465       0.0000000       8.6835828
 H    6238         4.6193884       0.0000000       8.6761218
 C    6239        29.8654560       0.0928438      36.4678176
 H    6240         4.2770932       0.0000000       8.6789884
 H    6241         4.0192622       0.0000000       8.6762379
 H    6242         4.6978683       0.0000000       8.6762424
 C    6243        23.0966387       0.0907106      36.4544222
 O    6244        27.8144939       0.0379014      23.3341840
 N    6245        28.8694475       0.0551919      27.5265113
 H    6246         2.4940658       0.0000000       8.6739571
 C    6247        23.1009331       0.0994426      36.5057332
 H    6248         4.4987764       0.0000000       8.6799483
 H    6249         4.4312204       0.0000000       8.6734307
 H    6250         4.4577721       0.0000000       8.6786686
-------------------------------------------------------------

================================================

========================== Dipole Moment Calculation ===========================
                             Type:    Single Molecule
 
Electronic dipole moment (e.bohr):    dx =    -1600596.756381060928
                                      dy =    -1599689.490597958909
                                      dz =    -1596962.541565927211
               Magnitude (e.bohr):             2769694.171209492255
 
     Ionic dipole moment (e.bohr):    dx =     1600539.200207019923
                                      dy =     1599851.047849219758
                                      dz =     1597088.217218549922
               Magnitude (e.bohr):             2769826.687769814394
 
     Total dipole moment (e.bohr):    dx =         -57.556174041005
                                      dy =         161.557251260849
                                      dz =         125.675652622711
               Magnitude (e.bohr):                 212.621325993758
 
================================================================================

===================== Writing canonical molecular orbitals =====================
| Orbital  Energy (eV)  Norm     |
| HOMO-5   -3.71990282  1.000000 | Writing "ddec_HOMO-5.cube" ... done
| HOMO-4   -3.69635431  1.000000 | Writing "ddec_HOMO-4.cube" ... done
| HOMO-3   -3.60132876  1.000000 | Writing "ddec_HOMO-3.cube" ... done
| HOMO-2   -3.54880452  1.000000 | Writing "ddec_HOMO-2.cube" ... done
| HOMO-1   -3.51389405  1.000000 | Writing "ddec_HOMO-1.cube" ... done
| HOMO     -3.47358515  1.000000 | Writing "ddec_HOMO.cube" ... done
| LUMO     -2.91250455  1.000000 | Writing "ddec_LUMO.cube" ... done
| LUMO+1   -2.55146255  1.000000 | Writing "ddec_LUMO+1.cube" ... done
| LUMO+2   -2.37269605  1.000000 | Writing "ddec_LUMO+2.cube" ... done
| LUMO+3   -2.26626474  1.000000 | Writing "ddec_LUMO+3.cube" ... done
| LUMO+4   -2.23452329  1.000000 | Writing "ddec_LUMO+4.cube" ... done
| LUMO+5   -2.20760938  1.000000 | Writing "ddec_LUMO+5.cube" ... done
================================================================================
 
===================== Density of States (DOS) calculation ======================
Writing "ddec_DOS.txt" ...  done
================================================================================
 
Writing bands to file "ddec.val_bands" ... done

------------------------------ TIMING INFORMATION ------------------------------
AVERAGE TIME:   24298.404s on     88 node(s)                                    
TOTAL TIME:     24298.406s on     88 node(s)                                    
================= AVERAGE TIMINGS FROM ALL NODES (CUMULATIVE) ==================
|| TAG                                    #calls    cpu time   %total  Gflops ||
|| parallel_prepare_fd_halos_request    :     6        0.00s   0.000%  ------ ||
|| parallel_prepare_fd_halos_satisfy    :     6        0.00s   0.000%  ------ ||
|| work_imbalance                       :     1        0.00s   0.000%  ------ ||
|| parallel_prepare_fd_halos_alloc      :     6        0.01s   0.000%  ------ ||
|| sparse_set_to_garbage                :    10        0.01s   0.000%  ------ ||
|| basis_extract_function_from_box      :   354        0.11s   0.000%  ------ ||
|| parallel_prepare_fd_halos_comms_imbal:     6        0.11s   0.000%  ------ ||
|| parallel_prepare_fd_halos_clear      :     6        0.32s   0.001%  ------ ||
|| parallel_prepare_fd_halos_comms_wait :     6        0.45s   0.002%  ------ ||
|| pseudopotentials_nonlocal_mat        :     1        0.68s   0.003%  ------ ||
|| parallel_prepare_fd_halos            :     6        0.89s   0.004%  ------ ||
|| sparse_trace                         :     5        1.65s   0.007%  ------ ||
|| projectors_init_fftbox_recip         :     1        1.67s   0.007%  ------ ||
|| finite_difference_derivative         :     6        2.14s   0.009%  ------ ||
|| fourier_apply_cell_forward           :     5        3.99s   0.016%  48.292 ||
|| fourier_apply_cell_backward          :     7        5.36s   0.022%  50.406 ||
|| xc_energy_potential                  :     1        6.36s   0.026%  ------ ||
|| openbc_locps_radial                  :     1       11.50s   0.047%  ------ ||
|| fourier_apply_box_pair               :    89       13.37s   0.055% 153.032 ||
|| basis_copy_function_to_box           :  3723       18.51s   0.076%  ------ ||
|| kernel_purify                        :     1       19.62s   0.081%  ------ ||
|| function_ops_brappd_ketppd           :     2       25.86s   0.106%  ------ ||
|| projectors_func_ovlp_box             :     1       34.67s   0.143%  ------ ||
|| restart_ngwfs_tightbox_input         :     2       46.56s   0.192%  ------ ||
|| integrals_kinetic                    :     1       83.56s   0.344%  ------ ||
|| restart_kernel_read                  :     2       92.58s   0.381%  ------ ||
|| dense_eigensolve                     :     1      134.39s   0.553%  ------ ||
|| dl_mg_solver_calls                   :     1      143.04s   0.589%  ------ ||
|| integrals_locpot_mat_els_batch       :    12      200.44s   0.825%  ------ ||
|| basis_dot_function_with_box          : 643.2k     224.45s   0.924%  ------ ||
|| sparse_init                          :     1      245.03s   1.008%  ------ ||
|| basis_add_function_to_box            : 553.9k     252.08s   1.037%  ------ ||
|| multigrid_prepare_bound_cond         :     1      314.07s   1.293%  ------ ||
|| sparse_hotelling_invert              :     1      322.38s   1.327%  ------ ||
|| sparse_product                       :    45      357.91s   1.473%  ------ ||
|| density_batch_row_sums               :    48      402.39s   1.656%  ------ ||
|| multigrid_calculate_hartree          :     1      459.58s   1.891%  ------ ||
|| potential_apply_to_ngwf_batch        :    12      560.50s   2.307%  ------ ||
|| eigenstates_calculate                :     1      592.58s   2.439%  ------ ||
|| density_fftbox_deposit_to_cell       :   712      710.20s   2.923%  ------ ||
|| integrals_locpot_dbl_grid            :     1      761.55s   3.134%  ------ ||
|| pseudo_make_structure_factor         :     1      764.41s   3.146%  ------ ||
|| hamiltonian_lhxc_calculate           :     1     1215.03s   5.000%  ------ ||
|| density_fftbox_interpolate_multiply  :   712     1263.94s   5.202%  ------ ||
|| optics_pos_mat_els                   :     1     1315.89s   5.416%  ------ ||
|| properties_polarisation              :     1     1316.96s   5.420%  ------ ||
|| openbc_locps_on_grid                 :     1     1602.98s   6.597%  ------ ||
|| fourier_apply_box                    :  3038     1741.68s   7.168% 192.582 ||
|| density_batch_interp_deposit         :    48     1987.46s   8.179%  ------ ||
|| density_on_dbl_grid                  :     4     2731.16s  11.240%  ------ ||
|| cell_grid_deposit_box_real           : 75070     3666.44s  15.089%  ------ ||
|| cell_grid_extract_box_real           : 145.1k    6690.44s  27.535%  ------ ||
|| ddec_main                            :     1    12234.83s  50.352%  ------ ||
|| properties_calculate                 :     1    18279.54s  75.229%  ------ ||
|| total_time                           :     1    24298.40s 100.000%  ------ ||
================================================================================
Overhead of generating timer report: 
- 1 ms averaging over threads,
- 18 ms ensuring consistency across MPI ranks,
- 12 ms printing in order.

Job completed: 09-04-2020 04:05 (+0100)

